V -t * -v 1.0a5 -a 0
A -t * -n 1 -p 0 -o 0x7fffffff -c 30 -a 1
A -t * -h 1 -m 1073741823 -s 0
c -t * -i 1 -n #000fff
c -t * -i 2 -n Red
n -t * -a 4 -s 4 -S UP -v circle -c black -i black
n -t * -a 0 -s 0 -S UP -v circle -c black -i black
n -t * -a 5 -s 5 -S UP -v circle -c black -i black
n -t * -a 1 -s 1 -S UP -v circle -c black -i black
n -t * -a 2 -s 2 -S UP -v circle -c black -i black
n -t * -a 3 -s 3 -S UP -v circle -c black -i black
l -t * -s 0 -d 2 -S UP -r 2000000 -D 0.01 -c black
l -t * -s 1 -d 2 -S UP -r 2000000 -D 0.01 -c black
l -t * -s 2 -d 3 -S UP -r 1700000 -D 0.02 -c black
l -t * -s 4 -d 3 -S UP -r 2000000 -D 0.01 -c black
l -t * -s 5 -d 3 -S UP -r 2000000 -D 0.01 -c black
+ -t 0.1 -s 1 -d 2 -p cbr -e 210 -c 1 -i 0 -a 1 -x {1.0 4.0 0 ------- null}
- -t 0.1 -s 1 -d 2 -p cbr -e 210 -c 1 -i 0 -a 1 -x {1.0 4.0 0 ------- null}
h -t 0.1 -s 1 -d 2 -p cbr -e 210 -c 1 -i 0 -a 1 -x {1.0 4.0 -1 ------- null}
+ -t 0.10375 -s 1 -d 2 -p cbr -e 210 -c 1 -i 1 -a 1 -x {1.0 4.0 1 ------- null}
- -t 0.10375 -s 1 -d 2 -p cbr -e 210 -c 1 -i 1 -a 1 -x {1.0 4.0 1 ------- null}
h -t 0.10375 -s 1 -d 2 -p cbr -e 210 -c 1 -i 1 -a 1 -x {1.0 4.0 -1 ------- null}
+ -t 0.1075 -s 1 -d 2 -p cbr -e 210 -c 1 -i 2 -a 1 -x {1.0 4.0 2 ------- null}
- -t 0.1075 -s 1 -d 2 -p cbr -e 210 -c 1 -i 2 -a 1 -x {1.0 4.0 2 ------- null}
h -t 0.1075 -s 1 -d 2 -p cbr -e 210 -c 1 -i 2 -a 1 -x {1.0 4.0 -1 ------- null}
r -t 0.11084 -s 1 -d 2 -p cbr -e 210 -c 1 -i 0 -a 1 -x {1.0 4.0 0 ------- null}
+ -t 0.11084 -s 2 -d 3 -p cbr -e 210 -c 1 -i 0 -a 1 -x {1.0 4.0 0 ------- null}
- -t 0.11084 -s 2 -d 3 -p cbr -e 210 -c 1 -i 0 -a 1 -x {1.0 4.0 0 ------- null}
h -t 0.11084 -s 2 -d 3 -p cbr -e 210 -c 1 -i 0 -a 1 -x {1.0 4.0 -1 ------- null}
+ -t 0.11125 -s 1 -d 2 -p cbr -e 210 -c 1 -i 3 -a 1 -x {1.0 4.0 3 ------- null}
- -t 0.11125 -s 1 -d 2 -p cbr -e 210 -c 1 -i 3 -a 1 -x {1.0 4.0 3 ------- null}
h -t 0.11125 -s 1 -d 2 -p cbr -e 210 -c 1 -i 3 -a 1 -x {1.0 4.0 -1 ------- null}
r -t 0.11459 -s 1 -d 2 -p cbr -e 210 -c 1 -i 1 -a 1 -x {1.0 4.0 1 ------- null}
+ -t 0.11459 -s 2 -d 3 -p cbr -e 210 -c 1 -i 1 -a 1 -x {1.0 4.0 1 ------- null}
- -t 0.11459 -s 2 -d 3 -p cbr -e 210 -c 1 -i 1 -a 1 -x {1.0 4.0 1 ------- null}
h -t 0.11459 -s 2 -d 3 -p cbr -e 210 -c 1 -i 1 -a 1 -x {1.0 4.0 -1 ------- null}
+ -t 0.115 -s 1 -d 2 -p cbr -e 210 -c 1 -i 4 -a 1 -x {1.0 4.0 4 ------- null}
- -t 0.115 -s 1 -d 2 -p cbr -e 210 -c 1 -i 4 -a 1 -x {1.0 4.0 4 ------- null}
h -t 0.115 -s 1 -d 2 -p cbr -e 210 -c 1 -i 4 -a 1 -x {1.0 4.0 -1 ------- null}
r -t 0.11834 -s 1 -d 2 -p cbr -e 210 -c 1 -i 2 -a 1 -x {1.0 4.0 2 ------- null}
+ -t 0.11834 -s 2 -d 3 -p cbr -e 210 -c 1 -i 2 -a 1 -x {1.0 4.0 2 ------- null}
- -t 0.11834 -s 2 -d 3 -p cbr -e 210 -c 1 -i 2 -a 1 -x {1.0 4.0 2 ------- null}
h -t 0.11834 -s 2 -d 3 -p cbr -e 210 -c 1 -i 2 -a 1 -x {1.0 4.0 -1 ------- null}
+ -t 0.11875 -s 1 -d 2 -p cbr -e 210 -c 1 -i 5 -a 1 -x {1.0 4.0 5 ------- null}
- -t 0.11875 -s 1 -d 2 -p cbr -e 210 -c 1 -i 5 -a 1 -x {1.0 4.0 5 ------- null}
h -t 0.11875 -s 1 -d 2 -p cbr -e 210 -c 1 -i 5 -a 1 -x {1.0 4.0 -1 ------- null}
r -t 0.12209 -s 1 -d 2 -p cbr -e 210 -c 1 -i 3 -a 1 -x {1.0 4.0 3 ------- null}
+ -t 0.12209 -s 2 -d 3 -p cbr -e 210 -c 1 -i 3 -a 1 -x {1.0 4.0 3 ------- null}
- -t 0.12209 -s 2 -d 3 -p cbr -e 210 -c 1 -i 3 -a 1 -x {1.0 4.0 3 ------- null}
h -t 0.12209 -s 2 -d 3 -p cbr -e 210 -c 1 -i 3 -a 1 -x {1.0 4.0 -1 ------- null}
+ -t 0.1225 -s 1 -d 2 -p cbr -e 210 -c 1 -i 6 -a 1 -x {1.0 4.0 6 ------- null}
- -t 0.1225 -s 1 -d 2 -p cbr -e 210 -c 1 -i 6 -a 1 -x {1.0 4.0 6 ------- null}
h -t 0.1225 -s 1 -d 2 -p cbr -e 210 -c 1 -i 6 -a 1 -x {1.0 4.0 -1 ------- null}
r -t 0.12584 -s 1 -d 2 -p cbr -e 210 -c 1 -i 4 -a 1 -x {1.0 4.0 4 ------- null}
+ -t 0.12584 -s 2 -d 3 -p cbr -e 210 -c 1 -i 4 -a 1 -x {1.0 4.0 4 ------- null}
- -t 0.12584 -s 2 -d 3 -p cbr -e 210 -c 1 -i 4 -a 1 -x {1.0 4.0 4 ------- null}
h -t 0.12584 -s 2 -d 3 -p cbr -e 210 -c 1 -i 4 -a 1 -x {1.0 4.0 -1 ------- null}
+ -t 0.12625 -s 1 -d 2 -p cbr -e 210 -c 1 -i 7 -a 1 -x {1.0 4.0 7 ------- null}
- -t 0.12625 -s 1 -d 2 -p cbr -e 210 -c 1 -i 7 -a 1 -x {1.0 4.0 7 ------- null}
h -t 0.12625 -s 1 -d 2 -p cbr -e 210 -c 1 -i 7 -a 1 -x {1.0 4.0 -1 ------- null}
r -t 0.12959 -s 1 -d 2 -p cbr -e 210 -c 1 -i 5 -a 1 -x {1.0 4.0 5 ------- null}
+ -t 0.12959 -s 2 -d 3 -p cbr -e 210 -c 1 -i 5 -a 1 -x {1.0 4.0 5 ------- null}
- -t 0.12959 -s 2 -d 3 -p cbr -e 210 -c 1 -i 5 -a 1 -x {1.0 4.0 5 ------- null}
h -t 0.12959 -s 2 -d 3 -p cbr -e 210 -c 1 -i 5 -a 1 -x {1.0 4.0 -1 ------- null}
+ -t 0.13 -s 1 -d 2 -p cbr -e 210 -c 1 -i 8 -a 1 -x {1.0 4.0 8 ------- null}
- -t 0.13 -s 1 -d 2 -p cbr -e 210 -c 1 -i 8 -a 1 -x {1.0 4.0 8 ------- null}
h -t 0.13 -s 1 -d 2 -p cbr -e 210 -c 1 -i 8 -a 1 -x {1.0 4.0 -1 ------- null}
r -t 0.131828235294118 -s 2 -d 3 -p cbr -e 210 -c 1 -i 0 -a 1 -x {1.0 4.0 0 ------- null}
+ -t 0.131828235294118 -s 3 -d 4 -p cbr -e 210 -c 1 -i 0 -a 1 -x {1.0 4.0 0 ------- null}
- -t 0.131828235294118 -s 3 -d 4 -p cbr -e 210 -c 1 -i 0 -a 1 -x {1.0 4.0 0 ------- null}
h -t 0.131828235294118 -s 3 -d 4 -p cbr -e 210 -c 1 -i 0 -a 1 -x {1.0 4.0 -1 ------- null}
r -t 0.13334 -s 1 -d 2 -p cbr -e 210 -c 1 -i 6 -a 1 -x {1.0 4.0 6 ------- null}
+ -t 0.13334 -s 2 -d 3 -p cbr -e 210 -c 1 -i 6 -a 1 -x {1.0 4.0 6 ------- null}
- -t 0.13334 -s 2 -d 3 -p cbr -e 210 -c 1 -i 6 -a 1 -x {1.0 4.0 6 ------- null}
h -t 0.13334 -s 2 -d 3 -p cbr -e 210 -c 1 -i 6 -a 1 -x {1.0 4.0 -1 ------- null}
+ -t 0.13375 -s 1 -d 2 -p cbr -e 210 -c 1 -i 9 -a 1 -x {1.0 4.0 9 ------- null}
- -t 0.13375 -s 1 -d 2 -p cbr -e 210 -c 1 -i 9 -a 1 -x {1.0 4.0 9 ------- null}
h -t 0.13375 -s 1 -d 2 -p cbr -e 210 -c 1 -i 9 -a 1 -x {1.0 4.0 -1 ------- null}
r -t 0.135578235294118 -s 2 -d 3 -p cbr -e 210 -c 1 -i 1 -a 1 -x {1.0 4.0 1 ------- null}
+ -t 0.135578235294118 -s 3 -d 4 -p cbr -e 210 -c 1 -i 1 -a 1 -x {1.0 4.0 1 ------- null}
- -t 0.135578235294118 -s 3 -d 4 -p cbr -e 210 -c 1 -i 1 -a 1 -x {1.0 4.0 1 ------- null}
h -t 0.135578235294118 -s 3 -d 4 -p cbr -e 210 -c 1 -i 1 -a 1 -x {1.0 4.0 -1 ------- null}
r -t 0.13709 -s 1 -d 2 -p cbr -e 210 -c 1 -i 7 -a 1 -x {1.0 4.0 7 ------- null}
+ -t 0.13709 -s 2 -d 3 -p cbr -e 210 -c 1 -i 7 -a 1 -x {1.0 4.0 7 ------- null}
- -t 0.13709 -s 2 -d 3 -p cbr -e 210 -c 1 -i 7 -a 1 -x {1.0 4.0 7 ------- null}
h -t 0.13709 -s 2 -d 3 -p cbr -e 210 -c 1 -i 7 -a 1 -x {1.0 4.0 -1 ------- null}
+ -t 0.1375 -s 1 -d 2 -p cbr -e 210 -c 1 -i 10 -a 1 -x {1.0 4.0 10 ------- null}
- -t 0.1375 -s 1 -d 2 -p cbr -e 210 -c 1 -i 10 -a 1 -x {1.0 4.0 10 ------- null}
h -t 0.1375 -s 1 -d 2 -p cbr -e 210 -c 1 -i 10 -a 1 -x {1.0 4.0 -1 ------- null}
r -t 0.139328235294118 -s 2 -d 3 -p cbr -e 210 -c 1 -i 2 -a 1 -x {1.0 4.0 2 ------- null}
+ -t 0.139328235294118 -s 3 -d 4 -p cbr -e 210 -c 1 -i 2 -a 1 -x {1.0 4.0 2 ------- null}
- -t 0.139328235294118 -s 3 -d 4 -p cbr -e 210 -c 1 -i 2 -a 1 -x {1.0 4.0 2 ------- null}
h -t 0.139328235294118 -s 3 -d 4 -p cbr -e 210 -c 1 -i 2 -a 1 -x {1.0 4.0 -1 ------- null}
r -t 0.14084 -s 1 -d 2 -p cbr -e 210 -c 1 -i 8 -a 1 -x {1.0 4.0 8 ------- null}
+ -t 0.14084 -s 2 -d 3 -p cbr -e 210 -c 1 -i 8 -a 1 -x {1.0 4.0 8 ------- null}
- -t 0.14084 -s 2 -d 3 -p cbr -e 210 -c 1 -i 8 -a 1 -x {1.0 4.0 8 ------- null}
h -t 0.14084 -s 2 -d 3 -p cbr -e 210 -c 1 -i 8 -a 1 -x {1.0 4.0 -1 ------- null}
+ -t 0.14125 -s 1 -d 2 -p cbr -e 210 -c 1 -i 11 -a 1 -x {1.0 4.0 11 ------- null}
- -t 0.14125 -s 1 -d 2 -p cbr -e 210 -c 1 -i 11 -a 1 -x {1.0 4.0 11 ------- null}
h -t 0.14125 -s 1 -d 2 -p cbr -e 210 -c 1 -i 11 -a 1 -x {1.0 4.0 -1 ------- null}
r -t 0.142668235294118 -s 3 -d 4 -p cbr -e 210 -c 1 -i 0 -a 1 -x {1.0 4.0 0 ------- null}
r -t 0.143078235294118 -s 2 -d 3 -p cbr -e 210 -c 1 -i 3 -a 1 -x {1.0 4.0 3 ------- null}
+ -t 0.143078235294118 -s 3 -d 4 -p cbr -e 210 -c 1 -i 3 -a 1 -x {1.0 4.0 3 ------- null}
- -t 0.143078235294118 -s 3 -d 4 -p cbr -e 210 -c 1 -i 3 -a 1 -x {1.0 4.0 3 ------- null}
h -t 0.143078235294118 -s 3 -d 4 -p cbr -e 210 -c 1 -i 3 -a 1 -x {1.0 4.0 -1 ------- null}
r -t 0.14459 -s 1 -d 2 -p cbr -e 210 -c 1 -i 9 -a 1 -x {1.0 4.0 9 ------- null}
+ -t 0.14459 -s 2 -d 3 -p cbr -e 210 -c 1 -i 9 -a 1 -x {1.0 4.0 9 ------- null}
- -t 0.14459 -s 2 -d 3 -p cbr -e 210 -c 1 -i 9 -a 1 -x {1.0 4.0 9 ------- null}
h -t 0.14459 -s 2 -d 3 -p cbr -e 210 -c 1 -i 9 -a 1 -x {1.0 4.0 -1 ------- null}
+ -t 0.145 -s 1 -d 2 -p cbr -e 210 -c 1 -i 12 -a 1 -x {1.0 4.0 12 ------- null}
- -t 0.145 -s 1 -d 2 -p cbr -e 210 -c 1 -i 12 -a 1 -x {1.0 4.0 12 ------- null}
h -t 0.145 -s 1 -d 2 -p cbr -e 210 -c 1 -i 12 -a 1 -x {1.0 4.0 -1 ------- null}
r -t 0.146418235294118 -s 3 -d 4 -p cbr -e 210 -c 1 -i 1 -a 1 -x {1.0 4.0 1 ------- null}
r -t 0.146828235294118 -s 2 -d 3 -p cbr -e 210 -c 1 -i 4 -a 1 -x {1.0 4.0 4 ------- null}
+ -t 0.146828235294118 -s 3 -d 4 -p cbr -e 210 -c 1 -i 4 -a 1 -x {1.0 4.0 4 ------- null}
- -t 0.146828235294118 -s 3 -d 4 -p cbr -e 210 -c 1 -i 4 -a 1 -x {1.0 4.0 4 ------- null}
h -t 0.146828235294118 -s 3 -d 4 -p cbr -e 210 -c 1 -i 4 -a 1 -x {1.0 4.0 -1 ------- null}
r -t 0.14834 -s 1 -d 2 -p cbr -e 210 -c 1 -i 10 -a 1 -x {1.0 4.0 10 ------- null}
+ -t 0.14834 -s 2 -d 3 -p cbr -e 210 -c 1 -i 10 -a 1 -x {1.0 4.0 10 ------- null}
- -t 0.14834 -s 2 -d 3 -p cbr -e 210 -c 1 -i 10 -a 1 -x {1.0 4.0 10 ------- null}
h -t 0.14834 -s 2 -d 3 -p cbr -e 210 -c 1 -i 10 -a 1 -x {1.0 4.0 -1 ------- null}
+ -t 0.14875 -s 1 -d 2 -p cbr -e 210 -c 1 -i 13 -a 1 -x {1.0 4.0 13 ------- null}
- -t 0.14875 -s 1 -d 2 -p cbr -e 210 -c 1 -i 13 -a 1 -x {1.0 4.0 13 ------- null}
h -t 0.14875 -s 1 -d 2 -p cbr -e 210 -c 1 -i 13 -a 1 -x {1.0 4.0 -1 ------- null}
r -t 0.150168235294118 -s 3 -d 4 -p cbr -e 210 -c 1 -i 2 -a 1 -x {1.0 4.0 2 ------- null}
r -t 0.150578235294118 -s 2 -d 3 -p cbr -e 210 -c 1 -i 5 -a 1 -x {1.0 4.0 5 ------- null}
+ -t 0.150578235294118 -s 3 -d 4 -p cbr -e 210 -c 1 -i 5 -a 1 -x {1.0 4.0 5 ------- null}
- -t 0.150578235294118 -s 3 -d 4 -p cbr -e 210 -c 1 -i 5 -a 1 -x {1.0 4.0 5 ------- null}
h -t 0.150578235294118 -s 3 -d 4 -p cbr -e 210 -c 1 -i 5 -a 1 -x {1.0 4.0 -1 ------- null}
r -t 0.15209 -s 1 -d 2 -p cbr -e 210 -c 1 -i 11 -a 1 -x {1.0 4.0 11 ------- null}
+ -t 0.15209 -s 2 -d 3 -p cbr -e 210 -c 1 -i 11 -a 1 -x {1.0 4.0 11 ------- null}
- -t 0.15209 -s 2 -d 3 -p cbr -e 210 -c 1 -i 11 -a 1 -x {1.0 4.0 11 ------- null}
h -t 0.15209 -s 2 -d 3 -p cbr -e 210 -c 1 -i 11 -a 1 -x {1.0 4.0 -1 ------- null}
+ -t 0.1525 -s 1 -d 2 -p cbr -e 210 -c 1 -i 14 -a 1 -x {1.0 4.0 14 ------- null}
- -t 0.1525 -s 1 -d 2 -p cbr -e 210 -c 1 -i 14 -a 1 -x {1.0 4.0 14 ------- null}
h -t 0.1525 -s 1 -d 2 -p cbr -e 210 -c 1 -i 14 -a 1 -x {1.0 4.0 -1 ------- null}
r -t 0.153918235294118 -s 3 -d 4 -p cbr -e 210 -c 1 -i 3 -a 1 -x {1.0 4.0 3 ------- null}
r -t 0.154328235294118 -s 2 -d 3 -p cbr -e 210 -c 1 -i 6 -a 1 -x {1.0 4.0 6 ------- null}
+ -t 0.154328235294118 -s 3 -d 4 -p cbr -e 210 -c 1 -i 6 -a 1 -x {1.0 4.0 6 ------- null}
- -t 0.154328235294118 -s 3 -d 4 -p cbr -e 210 -c 1 -i 6 -a 1 -x {1.0 4.0 6 ------- null}
h -t 0.154328235294118 -s 3 -d 4 -p cbr -e 210 -c 1 -i 6 -a 1 -x {1.0 4.0 -1 ------- null}
r -t 0.15584 -s 1 -d 2 -p cbr -e 210 -c 1 -i 12 -a 1 -x {1.0 4.0 12 ------- null}
+ -t 0.15584 -s 2 -d 3 -p cbr -e 210 -c 1 -i 12 -a 1 -x {1.0 4.0 12 ------- null}
- -t 0.15584 -s 2 -d 3 -p cbr -e 210 -c 1 -i 12 -a 1 -x {1.0 4.0 12 ------- null}
h -t 0.15584 -s 2 -d 3 -p cbr -e 210 -c 1 -i 12 -a 1 -x {1.0 4.0 -1 ------- null}
+ -t 0.15625 -s 1 -d 2 -p cbr -e 210 -c 1 -i 15 -a 1 -x {1.0 4.0 15 ------- null}
- -t 0.15625 -s 1 -d 2 -p cbr -e 210 -c 1 -i 15 -a 1 -x {1.0 4.0 15 ------- null}
h -t 0.15625 -s 1 -d 2 -p cbr -e 210 -c 1 -i 15 -a 1 -x {1.0 4.0 -1 ------- null}
r -t 0.157668235294118 -s 3 -d 4 -p cbr -e 210 -c 1 -i 4 -a 1 -x {1.0 4.0 4 ------- null}
r -t 0.158078235294118 -s 2 -d 3 -p cbr -e 210 -c 1 -i 7 -a 1 -x {1.0 4.0 7 ------- null}
+ -t 0.158078235294118 -s 3 -d 4 -p cbr -e 210 -c 1 -i 7 -a 1 -x {1.0 4.0 7 ------- null}
- -t 0.158078235294118 -s 3 -d 4 -p cbr -e 210 -c 1 -i 7 -a 1 -x {1.0 4.0 7 ------- null}
h -t 0.158078235294118 -s 3 -d 4 -p cbr -e 210 -c 1 -i 7 -a 1 -x {1.0 4.0 -1 ------- null}
r -t 0.15959 -s 1 -d 2 -p cbr -e 210 -c 1 -i 13 -a 1 -x {1.0 4.0 13 ------- null}
+ -t 0.15959 -s 2 -d 3 -p cbr -e 210 -c 1 -i 13 -a 1 -x {1.0 4.0 13 ------- null}
- -t 0.15959 -s 2 -d 3 -p cbr -e 210 -c 1 -i 13 -a 1 -x {1.0 4.0 13 ------- null}
h -t 0.15959 -s 2 -d 3 -p cbr -e 210 -c 1 -i 13 -a 1 -x {1.0 4.0 -1 ------- null}
+ -t 0.16 -s 1 -d 2 -p cbr -e 210 -c 1 -i 16 -a 1 -x {1.0 4.0 16 ------- null}
- -t 0.16 -s 1 -d 2 -p cbr -e 210 -c 1 -i 16 -a 1 -x {1.0 4.0 16 ------- null}
h -t 0.16 -s 1 -d 2 -p cbr -e 210 -c 1 -i 16 -a 1 -x {1.0 4.0 -1 ------- null}
r -t 0.161418235294118 -s 3 -d 4 -p cbr -e 210 -c 1 -i 5 -a 1 -x {1.0 4.0 5 ------- null}
r -t 0.161828235294118 -s 2 -d 3 -p cbr -e 210 -c 1 -i 8 -a 1 -x {1.0 4.0 8 ------- null}
+ -t 0.161828235294118 -s 3 -d 4 -p cbr -e 210 -c 1 -i 8 -a 1 -x {1.0 4.0 8 ------- null}
- -t 0.161828235294118 -s 3 -d 4 -p cbr -e 210 -c 1 -i 8 -a 1 -x {1.0 4.0 8 ------- null}
h -t 0.161828235294118 -s 3 -d 4 -p cbr -e 210 -c 1 -i 8 -a 1 -x {1.0 4.0 -1 ------- null}
r -t 0.16334 -s 1 -d 2 -p cbr -e 210 -c 1 -i 14 -a 1 -x {1.0 4.0 14 ------- null}
+ -t 0.16334 -s 2 -d 3 -p cbr -e 210 -c 1 -i 14 -a 1 -x {1.0 4.0 14 ------- null}
- -t 0.16334 -s 2 -d 3 -p cbr -e 210 -c 1 -i 14 -a 1 -x {1.0 4.0 14 ------- null}
h -t 0.16334 -s 2 -d 3 -p cbr -e 210 -c 1 -i 14 -a 1 -x {1.0 4.0 -1 ------- null}
+ -t 0.16375 -s 1 -d 2 -p cbr -e 210 -c 1 -i 17 -a 1 -x {1.0 4.0 17 ------- null}
- -t 0.16375 -s 1 -d 2 -p cbr -e 210 -c 1 -i 17 -a 1 -x {1.0 4.0 17 ------- null}
h -t 0.16375 -s 1 -d 2 -p cbr -e 210 -c 1 -i 17 -a 1 -x {1.0 4.0 -1 ------- null}
r -t 0.165168235294118 -s 3 -d 4 -p cbr -e 210 -c 1 -i 6 -a 1 -x {1.0 4.0 6 ------- null}
r -t 0.165578235294118 -s 2 -d 3 -p cbr -e 210 -c 1 -i 9 -a 1 -x {1.0 4.0 9 ------- null}
+ -t 0.165578235294118 -s 3 -d 4 -p cbr -e 210 -c 1 -i 9 -a 1 -x {1.0 4.0 9 ------- null}
- -t 0.165578235294118 -s 3 -d 4 -p cbr -e 210 -c 1 -i 9 -a 1 -x {1.0 4.0 9 ------- null}
h -t 0.165578235294118 -s 3 -d 4 -p cbr -e 210 -c 1 -i 9 -a 1 -x {1.0 4.0 -1 ------- null}
r -t 0.16709 -s 1 -d 2 -p cbr -e 210 -c 1 -i 15 -a 1 -x {1.0 4.0 15 ------- null}
+ -t 0.16709 -s 2 -d 3 -p cbr -e 210 -c 1 -i 15 -a 1 -x {1.0 4.0 15 ------- null}
- -t 0.16709 -s 2 -d 3 -p cbr -e 210 -c 1 -i 15 -a 1 -x {1.0 4.0 15 ------- null}
h -t 0.16709 -s 2 -d 3 -p cbr -e 210 -c 1 -i 15 -a 1 -x {1.0 4.0 -1 ------- null}
+ -t 0.1675 -s 1 -d 2 -p cbr -e 210 -c 1 -i 18 -a 1 -x {1.0 4.0 18 ------- null}
- -t 0.1675 -s 1 -d 2 -p cbr -e 210 -c 1 -i 18 -a 1 -x {1.0 4.0 18 ------- null}
h -t 0.1675 -s 1 -d 2 -p cbr -e 210 -c 1 -i 18 -a 1 -x {1.0 4.0 -1 ------- null}
r -t 0.168918235294118 -s 3 -d 4 -p cbr -e 210 -c 1 -i 7 -a 1 -x {1.0 4.0 7 ------- null}
r -t 0.169328235294118 -s 2 -d 3 -p cbr -e 210 -c 1 -i 10 -a 1 -x {1.0 4.0 10 ------- null}
+ -t 0.169328235294118 -s 3 -d 4 -p cbr -e 210 -c 1 -i 10 -a 1 -x {1.0 4.0 10 ------- null}
- -t 0.169328235294118 -s 3 -d 4 -p cbr -e 210 -c 1 -i 10 -a 1 -x {1.0 4.0 10 ------- null}
h -t 0.169328235294118 -s 3 -d 4 -p cbr -e 210 -c 1 -i 10 -a 1 -x {1.0 4.0 -1 ------- null}
r -t 0.17084 -s 1 -d 2 -p cbr -e 210 -c 1 -i 16 -a 1 -x {1.0 4.0 16 ------- null}
+ -t 0.17084 -s 2 -d 3 -p cbr -e 210 -c 1 -i 16 -a 1 -x {1.0 4.0 16 ------- null}
- -t 0.17084 -s 2 -d 3 -p cbr -e 210 -c 1 -i 16 -a 1 -x {1.0 4.0 16 ------- null}
h -t 0.17084 -s 2 -d 3 -p cbr -e 210 -c 1 -i 16 -a 1 -x {1.0 4.0 -1 ------- null}
+ -t 0.17125 -s 1 -d 2 -p cbr -e 210 -c 1 -i 19 -a 1 -x {1.0 4.0 19 ------- null}
- -t 0.17125 -s 1 -d 2 -p cbr -e 210 -c 1 -i 19 -a 1 -x {1.0 4.0 19 ------- null}
h -t 0.17125 -s 1 -d 2 -p cbr -e 210 -c 1 -i 19 -a 1 -x {1.0 4.0 -1 ------- null}
r -t 0.172668235294118 -s 3 -d 4 -p cbr -e 210 -c 1 -i 8 -a 1 -x {1.0 4.0 8 ------- null}
r -t 0.173078235294118 -s 2 -d 3 -p cbr -e 210 -c 1 -i 11 -a 1 -x {1.0 4.0 11 ------- null}
+ -t 0.173078235294118 -s 3 -d 4 -p cbr -e 210 -c 1 -i 11 -a 1 -x {1.0 4.0 11 ------- null}
- -t 0.173078235294118 -s 3 -d 4 -p cbr -e 210 -c 1 -i 11 -a 1 -x {1.0 4.0 11 ------- null}
h -t 0.173078235294118 -s 3 -d 4 -p cbr -e 210 -c 1 -i 11 -a 1 -x {1.0 4.0 -1 ------- null}
r -t 0.17459 -s 1 -d 2 -p cbr -e 210 -c 1 -i 17 -a 1 -x {1.0 4.0 17 ------- null}
+ -t 0.17459 -s 2 -d 3 -p cbr -e 210 -c 1 -i 17 -a 1 -x {1.0 4.0 17 ------- null}
- -t 0.17459 -s 2 -d 3 -p cbr -e 210 -c 1 -i 17 -a 1 -x {1.0 4.0 17 ------- null}
h -t 0.17459 -s 2 -d 3 -p cbr -e 210 -c 1 -i 17 -a 1 -x {1.0 4.0 -1 ------- null}
+ -t 0.175 -s 1 -d 2 -p cbr -e 210 -c 1 -i 20 -a 1 -x {1.0 4.0 20 ------- null}
- -t 0.175 -s 1 -d 2 -p cbr -e 210 -c 1 -i 20 -a 1 -x {1.0 4.0 20 ------- null}
h -t 0.175 -s 1 -d 2 -p cbr -e 210 -c 1 -i 20 -a 1 -x {1.0 4.0 -1 ------- null}
r -t 0.176418235294118 -s 3 -d 4 -p cbr -e 210 -c 1 -i 9 -a 1 -x {1.0 4.0 9 ------- null}
r -t 0.176828235294118 -s 2 -d 3 -p cbr -e 210 -c 1 -i 12 -a 1 -x {1.0 4.0 12 ------- null}
+ -t 0.176828235294118 -s 3 -d 4 -p cbr -e 210 -c 1 -i 12 -a 1 -x {1.0 4.0 12 ------- null}
- -t 0.176828235294118 -s 3 -d 4 -p cbr -e 210 -c 1 -i 12 -a 1 -x {1.0 4.0 12 ------- null}
h -t 0.176828235294118 -s 3 -d 4 -p cbr -e 210 -c 1 -i 12 -a 1 -x {1.0 4.0 -1 ------- null}
r -t 0.17834 -s 1 -d 2 -p cbr -e 210 -c 1 -i 18 -a 1 -x {1.0 4.0 18 ------- null}
+ -t 0.17834 -s 2 -d 3 -p cbr -e 210 -c 1 -i 18 -a 1 -x {1.0 4.0 18 ------- null}
- -t 0.17834 -s 2 -d 3 -p cbr -e 210 -c 1 -i 18 -a 1 -x {1.0 4.0 18 ------- null}
h -t 0.17834 -s 2 -d 3 -p cbr -e 210 -c 1 -i 18 -a 1 -x {1.0 4.0 -1 ------- null}
+ -t 0.17875 -s 1 -d 2 -p cbr -e 210 -c 1 -i 21 -a 1 -x {1.0 4.0 21 ------- null}
- -t 0.17875 -s 1 -d 2 -p cbr -e 210 -c 1 -i 21 -a 1 -x {1.0 4.0 21 ------- null}
h -t 0.17875 -s 1 -d 2 -p cbr -e 210 -c 1 -i 21 -a 1 -x {1.0 4.0 -1 ------- null}
r -t 0.180168235294118 -s 3 -d 4 -p cbr -e 210 -c 1 -i 10 -a 1 -x {1.0 4.0 10 ------- null}
r -t 0.180578235294118 -s 2 -d 3 -p cbr -e 210 -c 1 -i 13 -a 1 -x {1.0 4.0 13 ------- null}
+ -t 0.180578235294118 -s 3 -d 4 -p cbr -e 210 -c 1 -i 13 -a 1 -x {1.0 4.0 13 ------- null}
- -t 0.180578235294118 -s 3 -d 4 -p cbr -e 210 -c 1 -i 13 -a 1 -x {1.0 4.0 13 ------- null}
h -t 0.180578235294118 -s 3 -d 4 -p cbr -e 210 -c 1 -i 13 -a 1 -x {1.0 4.0 -1 ------- null}
r -t 0.18209 -s 1 -d 2 -p cbr -e 210 -c 1 -i 19 -a 1 -x {1.0 4.0 19 ------- null}
+ -t 0.18209 -s 2 -d 3 -p cbr -e 210 -c 1 -i 19 -a 1 -x {1.0 4.0 19 ------- null}
- -t 0.18209 -s 2 -d 3 -p cbr -e 210 -c 1 -i 19 -a 1 -x {1.0 4.0 19 ------- null}
h -t 0.18209 -s 2 -d 3 -p cbr -e 210 -c 1 -i 19 -a 1 -x {1.0 4.0 -1 ------- null}
+ -t 0.1825 -s 1 -d 2 -p cbr -e 210 -c 1 -i 22 -a 1 -x {1.0 4.0 22 ------- null}
- -t 0.1825 -s 1 -d 2 -p cbr -e 210 -c 1 -i 22 -a 1 -x {1.0 4.0 22 ------- null}
h -t 0.1825 -s 1 -d 2 -p cbr -e 210 -c 1 -i 22 -a 1 -x {1.0 4.0 -1 ------- null}
r -t 0.183918235294118 -s 3 -d 4 -p cbr -e 210 -c 1 -i 11 -a 1 -x {1.0 4.0 11 ------- null}
r -t 0.184328235294118 -s 2 -d 3 -p cbr -e 210 -c 1 -i 14 -a 1 -x {1.0 4.0 14 ------- null}
+ -t 0.184328235294118 -s 3 -d 4 -p cbr -e 210 -c 1 -i 14 -a 1 -x {1.0 4.0 14 ------- null}
- -t 0.184328235294118 -s 3 -d 4 -p cbr -e 210 -c 1 -i 14 -a 1 -x {1.0 4.0 14 ------- null}
h -t 0.184328235294118 -s 3 -d 4 -p cbr -e 210 -c 1 -i 14 -a 1 -x {1.0 4.0 -1 ------- null}
r -t 0.18584 -s 1 -d 2 -p cbr -e 210 -c 1 -i 20 -a 1 -x {1.0 4.0 20 ------- null}
+ -t 0.18584 -s 2 -d 3 -p cbr -e 210 -c 1 -i 20 -a 1 -x {1.0 4.0 20 ------- null}
- -t 0.18584 -s 2 -d 3 -p cbr -e 210 -c 1 -i 20 -a 1 -x {1.0 4.0 20 ------- null}
h -t 0.18584 -s 2 -d 3 -p cbr -e 210 -c 1 -i 20 -a 1 -x {1.0 4.0 -1 ------- null}
+ -t 0.18625 -s 1 -d 2 -p cbr -e 210 -c 1 -i 23 -a 1 -x {1.0 4.0 23 ------- null}
- -t 0.18625 -s 1 -d 2 -p cbr -e 210 -c 1 -i 23 -a 1 -x {1.0 4.0 23 ------- null}
h -t 0.18625 -s 1 -d 2 -p cbr -e 210 -c 1 -i 23 -a 1 -x {1.0 4.0 -1 ------- null}
r -t 0.187668235294118 -s 3 -d 4 -p cbr -e 210 -c 1 -i 12 -a 1 -x {1.0 4.0 12 ------- null}
r -t 0.188078235294118 -s 2 -d 3 -p cbr -e 210 -c 1 -i 15 -a 1 -x {1.0 4.0 15 ------- null}
+ -t 0.188078235294118 -s 3 -d 4 -p cbr -e 210 -c 1 -i 15 -a 1 -x {1.0 4.0 15 ------- null}
- -t 0.188078235294118 -s 3 -d 4 -p cbr -e 210 -c 1 -i 15 -a 1 -x {1.0 4.0 15 ------- null}
h -t 0.188078235294118 -s 3 -d 4 -p cbr -e 210 -c 1 -i 15 -a 1 -x {1.0 4.0 -1 ------- null}
r -t 0.18959 -s 1 -d 2 -p cbr -e 210 -c 1 -i 21 -a 1 -x {1.0 4.0 21 ------- null}
+ -t 0.18959 -s 2 -d 3 -p cbr -e 210 -c 1 -i 21 -a 1 -x {1.0 4.0 21 ------- null}
- -t 0.18959 -s 2 -d 3 -p cbr -e 210 -c 1 -i 21 -a 1 -x {1.0 4.0 21 ------- null}
h -t 0.18959 -s 2 -d 3 -p cbr -e 210 -c 1 -i 21 -a 1 -x {1.0 4.0 -1 ------- null}
+ -t 0.19 -s 1 -d 2 -p cbr -e 210 -c 1 -i 24 -a 1 -x {1.0 4.0 24 ------- null}
- -t 0.19 -s 1 -d 2 -p cbr -e 210 -c 1 -i 24 -a 1 -x {1.0 4.0 24 ------- null}
h -t 0.19 -s 1 -d 2 -p cbr -e 210 -c 1 -i 24 -a 1 -x {1.0 4.0 -1 ------- null}
r -t 0.191418235294118 -s 3 -d 4 -p cbr -e 210 -c 1 -i 13 -a 1 -x {1.0 4.0 13 ------- null}
r -t 0.191828235294118 -s 2 -d 3 -p cbr -e 210 -c 1 -i 16 -a 1 -x {1.0 4.0 16 ------- null}
+ -t 0.191828235294118 -s 3 -d 4 -p cbr -e 210 -c 1 -i 16 -a 1 -x {1.0 4.0 16 ------- null}
- -t 0.191828235294118 -s 3 -d 4 -p cbr -e 210 -c 1 -i 16 -a 1 -x {1.0 4.0 16 ------- null}
h -t 0.191828235294118 -s 3 -d 4 -p cbr -e 210 -c 1 -i 16 -a 1 -x {1.0 4.0 -1 ------- null}
r -t 0.19334 -s 1 -d 2 -p cbr -e 210 -c 1 -i 22 -a 1 -x {1.0 4.0 22 ------- null}
+ -t 0.19334 -s 2 -d 3 -p cbr -e 210 -c 1 -i 22 -a 1 -x {1.0 4.0 22 ------- null}
- -t 0.19334 -s 2 -d 3 -p cbr -e 210 -c 1 -i 22 -a 1 -x {1.0 4.0 22 ------- null}
h -t 0.19334 -s 2 -d 3 -p cbr -e 210 -c 1 -i 22 -a 1 -x {1.0 4.0 -1 ------- null}
+ -t 0.19375 -s 1 -d 2 -p cbr -e 210 -c 1 -i 25 -a 1 -x {1.0 4.0 25 ------- null}
- -t 0.19375 -s 1 -d 2 -p cbr -e 210 -c 1 -i 25 -a 1 -x {1.0 4.0 25 ------- null}
h -t 0.19375 -s 1 -d 2 -p cbr -e 210 -c 1 -i 25 -a 1 -x {1.0 4.0 -1 ------- null}
r -t 0.195168235294118 -s 3 -d 4 -p cbr -e 210 -c 1 -i 14 -a 1 -x {1.0 4.0 14 ------- null}
r -t 0.195578235294118 -s 2 -d 3 -p cbr -e 210 -c 1 -i 17 -a 1 -x {1.0 4.0 17 ------- null}
+ -t 0.195578235294118 -s 3 -d 4 -p cbr -e 210 -c 1 -i 17 -a 1 -x {1.0 4.0 17 ------- null}
- -t 0.195578235294118 -s 3 -d 4 -p cbr -e 210 -c 1 -i 17 -a 1 -x {1.0 4.0 17 ------- null}
h -t 0.195578235294118 -s 3 -d 4 -p cbr -e 210 -c 1 -i 17 -a 1 -x {1.0 4.0 -1 ------- null}
r -t 0.19709 -s 1 -d 2 -p cbr -e 210 -c 1 -i 23 -a 1 -x {1.0 4.0 23 ------- null}
+ -t 0.19709 -s 2 -d 3 -p cbr -e 210 -c 1 -i 23 -a 1 -x {1.0 4.0 23 ------- null}
- -t 0.19709 -s 2 -d 3 -p cbr -e 210 -c 1 -i 23 -a 1 -x {1.0 4.0 23 ------- null}
h -t 0.19709 -s 2 -d 3 -p cbr -e 210 -c 1 -i 23 -a 1 -x {1.0 4.0 -1 ------- null}
+ -t 0.1975 -s 1 -d 2 -p cbr -e 210 -c 1 -i 26 -a 1 -x {1.0 4.0 26 ------- null}
- -t 0.1975 -s 1 -d 2 -p cbr -e 210 -c 1 -i 26 -a 1 -x {1.0 4.0 26 ------- null}
h -t 0.1975 -s 1 -d 2 -p cbr -e 210 -c 1 -i 26 -a 1 -x {1.0 4.0 -1 ------- null}
r -t 0.198918235294118 -s 3 -d 4 -p cbr -e 210 -c 1 -i 15 -a 1 -x {1.0 4.0 15 ------- null}
r -t 0.199328235294118 -s 2 -d 3 -p cbr -e 210 -c 1 -i 18 -a 1 -x {1.0 4.0 18 ------- null}
+ -t 0.199328235294118 -s 3 -d 4 -p cbr -e 210 -c 1 -i 18 -a 1 -x {1.0 4.0 18 ------- null}
- -t 0.199328235294118 -s 3 -d 4 -p cbr -e 210 -c 1 -i 18 -a 1 -x {1.0 4.0 18 ------- null}
h -t 0.199328235294118 -s 3 -d 4 -p cbr -e 210 -c 1 -i 18 -a 1 -x {1.0 4.0 -1 ------- null}
r -t 0.20084 -s 1 -d 2 -p cbr -e 210 -c 1 -i 24 -a 1 -x {1.0 4.0 24 ------- null}
+ -t 0.20084 -s 2 -d 3 -p cbr -e 210 -c 1 -i 24 -a 1 -x {1.0 4.0 24 ------- null}
- -t 0.20084 -s 2 -d 3 -p cbr -e 210 -c 1 -i 24 -a 1 -x {1.0 4.0 24 ------- null}
h -t 0.20084 -s 2 -d 3 -p cbr -e 210 -c 1 -i 24 -a 1 -x {1.0 4.0 -1 ------- null}
+ -t 0.20125 -s 1 -d 2 -p cbr -e 210 -c 1 -i 27 -a 1 -x {1.0 4.0 27 ------- null}
- -t 0.20125 -s 1 -d 2 -p cbr -e 210 -c 1 -i 27 -a 1 -x {1.0 4.0 27 ------- null}
h -t 0.20125 -s 1 -d 2 -p cbr -e 210 -c 1 -i 27 -a 1 -x {1.0 4.0 -1 ------- null}
r -t 0.202668235294118 -s 3 -d 4 -p cbr -e 210 -c 1 -i 16 -a 1 -x {1.0 4.0 16 ------- null}
r -t 0.203078235294118 -s 2 -d 3 -p cbr -e 210 -c 1 -i 19 -a 1 -x {1.0 4.0 19 ------- null}
+ -t 0.203078235294118 -s 3 -d 4 -p cbr -e 210 -c 1 -i 19 -a 1 -x {1.0 4.0 19 ------- null}
- -t 0.203078235294118 -s 3 -d 4 -p cbr -e 210 -c 1 -i 19 -a 1 -x {1.0 4.0 19 ------- null}
h -t 0.203078235294118 -s 3 -d 4 -p cbr -e 210 -c 1 -i 19 -a 1 -x {1.0 4.0 -1 ------- null}
r -t 0.20459 -s 1 -d 2 -p cbr -e 210 -c 1 -i 25 -a 1 -x {1.0 4.0 25 ------- null}
+ -t 0.20459 -s 2 -d 3 -p cbr -e 210 -c 1 -i 25 -a 1 -x {1.0 4.0 25 ------- null}
- -t 0.20459 -s 2 -d 3 -p cbr -e 210 -c 1 -i 25 -a 1 -x {1.0 4.0 25 ------- null}
h -t 0.20459 -s 2 -d 3 -p cbr -e 210 -c 1 -i 25 -a 1 -x {1.0 4.0 -1 ------- null}
+ -t 0.205 -s 1 -d 2 -p cbr -e 210 -c 1 -i 28 -a 1 -x {1.0 4.0 28 ------- null}
- -t 0.205 -s 1 -d 2 -p cbr -e 210 -c 1 -i 28 -a 1 -x {1.0 4.0 28 ------- null}
h -t 0.205 -s 1 -d 2 -p cbr -e 210 -c 1 -i 28 -a 1 -x {1.0 4.0 -1 ------- null}
r -t 0.206418235294118 -s 3 -d 4 -p cbr -e 210 -c 1 -i 17 -a 1 -x {1.0 4.0 17 ------- null}
r -t 0.206828235294118 -s 2 -d 3 -p cbr -e 210 -c 1 -i 20 -a 1 -x {1.0 4.0 20 ------- null}
+ -t 0.206828235294118 -s 3 -d 4 -p cbr -e 210 -c 1 -i 20 -a 1 -x {1.0 4.0 20 ------- null}
- -t 0.206828235294118 -s 3 -d 4 -p cbr -e 210 -c 1 -i 20 -a 1 -x {1.0 4.0 20 ------- null}
h -t 0.206828235294118 -s 3 -d 4 -p cbr -e 210 -c 1 -i 20 -a 1 -x {1.0 4.0 -1 ------- null}
r -t 0.20834 -s 1 -d 2 -p cbr -e 210 -c 1 -i 26 -a 1 -x {1.0 4.0 26 ------- null}
+ -t 0.20834 -s 2 -d 3 -p cbr -e 210 -c 1 -i 26 -a 1 -x {1.0 4.0 26 ------- null}
- -t 0.20834 -s 2 -d 3 -p cbr -e 210 -c 1 -i 26 -a 1 -x {1.0 4.0 26 ------- null}
h -t 0.20834 -s 2 -d 3 -p cbr -e 210 -c 1 -i 26 -a 1 -x {1.0 4.0 -1 ------- null}
+ -t 0.20875 -s 1 -d 2 -p cbr -e 210 -c 1 -i 29 -a 1 -x {1.0 4.0 29 ------- null}
- -t 0.20875 -s 1 -d 2 -p cbr -e 210 -c 1 -i 29 -a 1 -x {1.0 4.0 29 ------- null}
h -t 0.20875 -s 1 -d 2 -p cbr -e 210 -c 1 -i 29 -a 1 -x {1.0 4.0 -1 ------- null}
r -t 0.210168235294118 -s 3 -d 4 -p cbr -e 210 -c 1 -i 18 -a 1 -x {1.0 4.0 18 ------- null}
r -t 0.210578235294118 -s 2 -d 3 -p cbr -e 210 -c 1 -i 21 -a 1 -x {1.0 4.0 21 ------- null}
+ -t 0.210578235294118 -s 3 -d 4 -p cbr -e 210 -c 1 -i 21 -a 1 -x {1.0 4.0 21 ------- null}
- -t 0.210578235294118 -s 3 -d 4 -p cbr -e 210 -c 1 -i 21 -a 1 -x {1.0 4.0 21 ------- null}
h -t 0.210578235294118 -s 3 -d 4 -p cbr -e 210 -c 1 -i 21 -a 1 -x {1.0 4.0 -1 ------- null}
r -t 0.21209 -s 1 -d 2 -p cbr -e 210 -c 1 -i 27 -a 1 -x {1.0 4.0 27 ------- null}
+ -t 0.21209 -s 2 -d 3 -p cbr -e 210 -c 1 -i 27 -a 1 -x {1.0 4.0 27 ------- null}
- -t 0.21209 -s 2 -d 3 -p cbr -e 210 -c 1 -i 27 -a 1 -x {1.0 4.0 27 ------- null}
h -t 0.21209 -s 2 -d 3 -p cbr -e 210 -c 1 -i 27 -a 1 -x {1.0 4.0 -1 ------- null}
+ -t 0.2125 -s 1 -d 2 -p cbr -e 210 -c 1 -i 30 -a 1 -x {1.0 4.0 30 ------- null}
- -t 0.2125 -s 1 -d 2 -p cbr -e 210 -c 1 -i 30 -a 1 -x {1.0 4.0 30 ------- null}
h -t 0.2125 -s 1 -d 2 -p cbr -e 210 -c 1 -i 30 -a 1 -x {1.0 4.0 -1 ------- null}
r -t 0.213918235294118 -s 3 -d 4 -p cbr -e 210 -c 1 -i 19 -a 1 -x {1.0 4.0 19 ------- null}
r -t 0.214328235294118 -s 2 -d 3 -p cbr -e 210 -c 1 -i 22 -a 1 -x {1.0 4.0 22 ------- null}
+ -t 0.214328235294118 -s 3 -d 4 -p cbr -e 210 -c 1 -i 22 -a 1 -x {1.0 4.0 22 ------- null}
- -t 0.214328235294118 -s 3 -d 4 -p cbr -e 210 -c 1 -i 22 -a 1 -x {1.0 4.0 22 ------- null}
h -t 0.214328235294118 -s 3 -d 4 -p cbr -e 210 -c 1 -i 22 -a 1 -x {1.0 4.0 -1 ------- null}
r -t 0.21584 -s 1 -d 2 -p cbr -e 210 -c 1 -i 28 -a 1 -x {1.0 4.0 28 ------- null}
+ -t 0.21584 -s 2 -d 3 -p cbr -e 210 -c 1 -i 28 -a 1 -x {1.0 4.0 28 ------- null}
- -t 0.21584 -s 2 -d 3 -p cbr -e 210 -c 1 -i 28 -a 1 -x {1.0 4.0 28 ------- null}
h -t 0.21584 -s 2 -d 3 -p cbr -e 210 -c 1 -i 28 -a 1 -x {1.0 4.0 -1 ------- null}
+ -t 0.21625 -s 1 -d 2 -p cbr -e 210 -c 1 -i 31 -a 1 -x {1.0 4.0 31 ------- null}
- -t 0.21625 -s 1 -d 2 -p cbr -e 210 -c 1 -i 31 -a 1 -x {1.0 4.0 31 ------- null}
h -t 0.21625 -s 1 -d 2 -p cbr -e 210 -c 1 -i 31 -a 1 -x {1.0 4.0 -1 ------- null}
r -t 0.217668235294118 -s 3 -d 4 -p cbr -e 210 -c 1 -i 20 -a 1 -x {1.0 4.0 20 ------- null}
r -t 0.218078235294118 -s 2 -d 3 -p cbr -e 210 -c 1 -i 23 -a 1 -x {1.0 4.0 23 ------- null}
+ -t 0.218078235294118 -s 3 -d 4 -p cbr -e 210 -c 1 -i 23 -a 1 -x {1.0 4.0 23 ------- null}
- -t 0.218078235294118 -s 3 -d 4 -p cbr -e 210 -c 1 -i 23 -a 1 -x {1.0 4.0 23 ------- null}
h -t 0.218078235294118 -s 3 -d 4 -p cbr -e 210 -c 1 -i 23 -a 1 -x {1.0 4.0 -1 ------- null}
r -t 0.21959 -s 1 -d 2 -p cbr -e 210 -c 1 -i 29 -a 1 -x {1.0 4.0 29 ------- null}
+ -t 0.21959 -s 2 -d 3 -p cbr -e 210 -c 1 -i 29 -a 1 -x {1.0 4.0 29 ------- null}
- -t 0.21959 -s 2 -d 3 -p cbr -e 210 -c 1 -i 29 -a 1 -x {1.0 4.0 29 ------- null}
h -t 0.21959 -s 2 -d 3 -p cbr -e 210 -c 1 -i 29 -a 1 -x {1.0 4.0 -1 ------- null}
+ -t 0.22 -s 1 -d 2 -p cbr -e 210 -c 1 -i 32 -a 1 -x {1.0 4.0 32 ------- null}
- -t 0.22 -s 1 -d 2 -p cbr -e 210 -c 1 -i 32 -a 1 -x {1.0 4.0 32 ------- null}
h -t 0.22 -s 1 -d 2 -p cbr -e 210 -c 1 -i 32 -a 1 -x {1.0 4.0 -1 ------- null}
r -t 0.221418235294118 -s 3 -d 4 -p cbr -e 210 -c 1 -i 21 -a 1 -x {1.0 4.0 21 ------- null}
r -t 0.221828235294118 -s 2 -d 3 -p cbr -e 210 -c 1 -i 24 -a 1 -x {1.0 4.0 24 ------- null}
+ -t 0.221828235294118 -s 3 -d 4 -p cbr -e 210 -c 1 -i 24 -a 1 -x {1.0 4.0 24 ------- null}
- -t 0.221828235294118 -s 3 -d 4 -p cbr -e 210 -c 1 -i 24 -a 1 -x {1.0 4.0 24 ------- null}
h -t 0.221828235294118 -s 3 -d 4 -p cbr -e 210 -c 1 -i 24 -a 1 -x {1.0 4.0 -1 ------- null}
r -t 0.22334 -s 1 -d 2 -p cbr -e 210 -c 1 -i 30 -a 1 -x {1.0 4.0 30 ------- null}
+ -t 0.22334 -s 2 -d 3 -p cbr -e 210 -c 1 -i 30 -a 1 -x {1.0 4.0 30 ------- null}
- -t 0.22334 -s 2 -d 3 -p cbr -e 210 -c 1 -i 30 -a 1 -x {1.0 4.0 30 ------- null}
h -t 0.22334 -s 2 -d 3 -p cbr -e 210 -c 1 -i 30 -a 1 -x {1.0 4.0 -1 ------- null}
+ -t 0.22375 -s 1 -d 2 -p cbr -e 210 -c 1 -i 33 -a 1 -x {1.0 4.0 33 ------- null}