+ 0.1 1 2 cbr 210 ------- 1 1.0 4.0 0 0
- 0.1 1 2 cbr 210 ------- 1 1.0 4.0 0 0
+ 0.10375 1 2 cbr 210 ------- 1 1.0 4.0 1 1
- 0.10375 1 2 cbr 210 ------- 1 1.0 4.0 1 1
+ 0.1075 1 2 cbr 210 ------- 1 1.0 4.0 2 2
- 0.1075 1 2 cbr 210 ------- 1 1.0 4.0 2 2
r 0.11084 1 2 cbr 210 ------- 1 1.0 4.0 0 0
+ 0.11084 2 3 cbr 210 ------- 1 1.0 4.0 0 0
- 0.11084 2 3 cbr 210 ------- 1 1.0 4.0 0 0
+ 0.11125 1 2 cbr 210 ------- 1 1.0 4.0 3 3
- 0.11125 1 2 cbr 210 ------- 1 1.0 4.0 3 3
r 0.11459 1 2 cbr 210 ------- 1 1.0 4.0 1 1
+ 0.11459 2 3 cbr 210 ------- 1 1.0 4.0 1 1
- 0.11459 2 3 cbr 210 ------- 1 1.0 4.0 1 1
+ 0.115 1 2 cbr 210 ------- 1 1.0 4.0 4 4
- 0.115 1 2 cbr 210 ------- 1 1.0 4.0 4 4
r 0.11834 1 2 cbr 210 ------- 1 1.0 4.0 2 2
+ 0.11834 2 3 cbr 210 ------- 1 1.0 4.0 2 2
- 0.11834 2 3 cbr 210 ------- 1 1.0 4.0 2 2
+ 0.11875 1 2 cbr 210 ------- 1 1.0 4.0 5 5
- 0.11875 1 2 cbr 210 ------- 1 1.0 4.0 5 5
r 0.12209 1 2 cbr 210 ------- 1 1.0 4.0 3 3
+ 0.12209 2 3 cbr 210 ------- 1 1.0 4.0 3 3
- 0.12209 2 3 cbr 210 ------- 1 1.0 4.0 3 3
+ 0.1225 1 2 cbr 210 ------- 1 1.0 4.0 6 6
- 0.1225 1 2 cbr 210 ------- 1 1.0 4.0 6 6
r 0.12584 1 2 cbr 210 ------- 1 1.0 4.0 4 4
+ 0.12584 2 3 cbr 210 ------- 1 1.0 4.0 4 4
- 0.12584 2 3 cbr 210 ------- 1 1.0 4.0 4 4
+ 0.12625 1 2 cbr 210 ------- 1 1.0 4.0 7 7
- 0.12625 1 2 cbr 210 ------- 1 1.0 4.0 7 7
r 0.12959 1 2 cbr 210 ------- 1 1.0 4.0 5 5
+ 0.12959 2 3 cbr 210 ------- 1 1.0 4.0 5 5
- 0.12959 2 3 cbr 210 ------- 1 1.0 4.0 5 5
+ 0.13 1 2 cbr 210 ------- 1 1.0 4.0 8 8
- 0.13 1 2 cbr 210 ------- 1 1.0 4.0 8 8
r 0.131828 2 3 cbr 210 ------- 1 1.0 4.0 0 0
+ 0.131828 3 4 cbr 210 ------- 1 1.0 4.0 0 0
- 0.131828 3 4 cbr 210 ------- 1 1.0 4.0 0 0
r 0.13334 1 2 cbr 210 ------- 1 1.0 4.0 6 6
+ 0.13334 2 3 cbr 210 ------- 1 1.0 4.0 6 6
- 0.13334 2 3 cbr 210 ------- 1 1.0 4.0 6 6
+ 0.13375 1 2 cbr 210 ------- 1 1.0 4.0 9 9
- 0.13375 1 2 cbr 210 ------- 1 1.0 4.0 9 9
r 0.135578 2 3 cbr 210 ------- 1 1.0 4.0 1 1
+ 0.135578 3 4 cbr 210 ------- 1 1.0 4.0 1 1
- 0.135578 3 4 cbr 210 ------- 1 1.0 4.0 1 1
r 0.13709 1 2 cbr 210 ------- 1 1.0 4.0 7 7
+ 0.13709 2 3 cbr 210 ------- 1 1.0 4.0 7 7
- 0.13709 2 3 cbr 210 ------- 1 1.0 4.0 7 7
+ 0.1375 1 2 cbr 210 ------- 1 1.0 4.0 10 10
- 0.1375 1 2 cbr 210 ------- 1 1.0 4.0 10 10
r 0.139328 2 3 cbr 210 ------- 1 1.0 4.0 2 2
+ 0.139328 3 4 cbr 210 ------- 1 1.0 4.0 2 2
- 0.139328 3 4 cbr 210 ------- 1 1.0 4.0 2 2
r 0.14084 1 2 cbr 210 ------- 1 1.0 4.0 8 8
+ 0.14084 2 3 cbr 210 ------- 1 1.0 4.0 8 8
- 0.14084 2 3 cbr 210 ------- 1 1.0 4.0 8 8
+ 0.14125 1 2 cbr 210 ------- 1 1.0 4.0 11 11
- 0.14125 1 2 cbr 210 ------- 1 1.0 4.0 11 11
r 0.142668 3 4 cbr 210 ------- 1 1.0 4.0 0 0
r 0.143078 2 3 cbr 210 ------- 1 1.0 4.0 3 3
+ 0.143078 3 4 cbr 210 ------- 1 1.0 4.0 3 3
- 0.143078 3 4 cbr 210 ------- 1 1.0 4.0 3 3
r 0.14459 1 2 cbr 210 ------- 1 1.0 4.0 9 9
+ 0.14459 2 3 cbr 210 ------- 1 1.0 4.0 9 9
- 0.14459 2 3 cbr 210 ------- 1 1.0 4.0 9 9
+ 0.145 1 2 cbr 210 ------- 1 1.0 4.0 12 12
- 0.145 1 2 cbr 210 ------- 1 1.0 4.0 12 12
r 0.146418 3 4 cbr 210 ------- 1 1.0 4.0 1 1
r 0.146828 2 3 cbr 210 ------- 1 1.0 4.0 4 4
+ 0.146828 3 4 cbr 210 ------- 1 1.0 4.0 4 4
- 0.146828 3 4 cbr 210 ------- 1 1.0 4.0 4 4
r 0.14834 1 2 cbr 210 ------- 1 1.0 4.0 10 10
+ 0.14834 2 3 cbr 210 ------- 1 1.0 4.0 10 10
- 0.14834 2 3 cbr 210 ------- 1 1.0 4.0 10 10
+ 0.14875 1 2 cbr 210 ------- 1 1.0 4.0 13 13
- 0.14875 1 2 cbr 210 ------- 1 1.0 4.0 13 13
r 0.150168 3 4 cbr 210 ------- 1 1.0 4.0 2 2
r 0.150578 2 3 cbr 210 ------- 1 1.0 4.0 5 5
+ 0.150578 3 4 cbr 210 ------- 1 1.0 4.0 5 5
- 0.150578 3 4 cbr 210 ------- 1 1.0 4.0 5 5
r 0.15209 1 2 cbr 210 ------- 1 1.0 4.0 11 11
+ 0.15209 2 3 cbr 210 ------- 1 1.0 4.0 11 11
- 0.15209 2 3 cbr 210 ------- 1 1.0 4.0 11 11
+ 0.1525 1 2 cbr 210 ------- 1 1.0 4.0 14 14
- 0.1525 1 2 cbr 210 ------- 1 1.0 4.0 14 14
r 0.153918 3 4 cbr 210 ------- 1 1.0 4.0 3 3
r 0.154328 2 3 cbr 210 ------- 1 1.0 4.0 6 6
+ 0.154328 3 4 cbr 210 ------- 1 1.0 4.0 6 6
- 0.154328 3 4 cbr 210 ------- 1 1.0 4.0 6 6
r 0.15584 1 2 cbr 210 ------- 1 1.0 4.0 12 12
+ 0.15584 2 3 cbr 210 ------- 1 1.0 4.0 12 12
- 0.15584 2 3 cbr 210 ------- 1 1.0 4.0 12 12
+ 0.15625 1 2 cbr 210 ------- 1 1.0 4.0 15 15
- 0.15625 1 2 cbr 210 ------- 1 1.0 4.0 15 15
r 0.157668 3 4 cbr 210 ------- 1 1.0 4.0 4 4
r 0.158078 2 3 cbr 210 ------- 1 1.0 4.0 7 7
+ 0.158078 3 4 cbr 210 ------- 1 1.0 4.0 7 7
- 0.158078 3 4 cbr 210 ------- 1 1.0 4.0 7 7
r 0.15959 1 2 cbr 210 ------- 1 1.0 4.0 13 13
+ 0.15959 2 3 cbr 210 ------- 1 1.0 4.0 13 13
- 0.15959 2 3 cbr 210 ------- 1 1.0 4.0 13 13
+ 0.16 1 2 cbr 210 ------- 1 1.0 4.0 16 16
- 0.16 1 2 cbr 210 ------- 1 1.0 4.0 16 16
r 0.161418 3 4 cbr 210 ------- 1 1.0 4.0 5 5
r 0.161828 2 3 cbr 210 ------- 1 1.0 4.0 8 8
+ 0.161828 3 4 cbr 210 ------- 1 1.0 4.0 8 8
- 0.161828 3 4 cbr 210 ------- 1 1.0 4.0 8 8
r 0.16334 1 2 cbr 210 ------- 1 1.0 4.0 14 14
+ 0.16334 2 3 cbr 210 ------- 1 1.0 4.0 14 14
- 0.16334 2 3 cbr 210 ------- 1 1.0 4.0 14 14
+ 0.16375 1 2 cbr 210 ------- 1 1.0 4.0 17 17
- 0.16375 1 2 cbr 210 ------- 1 1.0 4.0 17 17
r 0.165168 3 4 cbr 210 ------- 1 1.0 4.0 6 6
r 0.165578 2 3 cbr 210 ------- 1 1.0 4.0 9 9
+ 0.165578 3 4 cbr 210 ------- 1 1.0 4.0 9 9
- 0.165578 3 4 cbr 210 ------- 1 1.0 4.0 9 9
r 0.16709 1 2 cbr 210 ------- 1 1.0 4.0 15 15
+ 0.16709 2 3 cbr 210 ------- 1 1.0 4.0 15 15
- 0.16709 2 3 cbr 210 ------- 1 1.0 4.0 15 15
+ 0.1675 1 2 cbr 210 ------- 1 1.0 4.0 18 18
- 0.1675 1 2 cbr 210 ------- 1 1.0 4.0 18 18
r 0.168918 3 4 cbr 210 ------- 1 1.0 4.0 7 7
r 0.169328 2 3 cbr 210 ------- 1 1.0 4.0 10 10
+ 0.169328 3 4 cbr 210 ------- 1 1.0 4.0 10 10
- 0.169328 3 4 cbr 210 ------- 1 1.0 4.0 10 10
r 0.17084 1 2 cbr 210 ------- 1 1.0 4.0 16 16
+ 0.17084 2 3 cbr 210 ------- 1 1.0 4.0 16 16
- 0.17084 2 3 cbr 210 ------- 1 1.0 4.0 16 16
+ 0.17125 1 2 cbr 210 ------- 1 1.0 4.0 19 19
- 0.17125 1 2 cbr 210 ------- 1 1.0 4.0 19 19
r 0.172668 3 4 cbr 210 ------- 1 1.0 4.0 8 8
r 0.173078 2 3 cbr 210 ------- 1 1.0 4.0 11 11
+ 0.173078 3 4 cbr 210 ------- 1 1.0 4.0 11 11
- 0.173078 3 4 cbr 210 ------- 1 1.0 4.0 11 11
r 0.17459 1 2 cbr 210 ------- 1 1.0 4.0 17 17
+ 0.17459 2 3 cbr 210 ------- 1 1.0 4.0 17 17
- 0.17459 2 3 cbr 210 ------- 1 1.0 4.0 17 17
+ 0.175 1 2 cbr 210 ------- 1 1.0 4.0 20 20
- 0.175 1 2 cbr 210 ------- 1 1.0 4.0 20 20
r 0.176418 3 4 cbr 210 ------- 1 1.0 4.0 9 9
r 0.176828 2 3 cbr 210 ------- 1 1.0 4.0 12 12
+ 0.176828 3 4 cbr 210 ------- 1 1.0 4.0 12 12
- 0.176828 3 4 cbr 210 ------- 1 1.0 4.0 12 12
r 0.17834 1 2 cbr 210 ------- 1 1.0 4.0 18 18
+ 0.17834 2 3 cbr 210 ------- 1 1.0 4.0 18 18
- 0.17834 2 3 cbr 210 ------- 1 1.0 4.0 18 18
+ 0.17875 1 2 cbr 210 ------- 1 1.0 4.0 21 21
- 0.17875 1 2 cbr 210 ------- 1 1.0 4.0 21 21
r 0.180168 3 4 cbr 210 ------- 1 1.0 4.0 10 10
r 0.180578 2 3 cbr 210 ------- 1 1.0 4.0 13 13
+ 0.180578 3 4 cbr 210 ------- 1 1.0 4.0 13 13
- 0.180578 3 4 cbr 210 ------- 1 1.0 4.0 13 13
r 0.18209 1 2 cbr 210 ------- 1 1.0 4.0 19 19
+ 0.18209 2 3 cbr 210 ------- 1 1.0 4.0 19 19
- 0.18209 2 3 cbr 210 ------- 1 1.0 4.0 19 19
+ 0.1825 1 2 cbr 210 ------- 1 1.0 4.0 22 22
- 0.1825 1 2 cbr 210 ------- 1 1.0 4.0 22 22
r 0.183918 3 4 cbr 210 ------- 1 1.0 4.0 11 11
r 0.184328 2 3 cbr 210 ------- 1 1.0 4.0 14 14
+ 0.184328 3 4 cbr 210 ------- 1 1.0 4.0 14 14
- 0.184328 3 4 cbr 210 ------- 1 1.0 4.0 14 14
r 0.18584 1 2 cbr 210 ------- 1 1.0 4.0 20 20
+ 0.18584 2 3 cbr 210 ------- 1 1.0 4.0 20 20
- 0.18584 2 3 cbr 210 ------- 1 1.0 4.0 20 20
+ 0.18625 1 2 cbr 210 ------- 1 1.0 4.0 23 23
- 0.18625 1 2 cbr 210 ------- 1 1.0 4.0 23 23
r 0.187668 3 4 cbr 210 ------- 1 1.0 4.0 12 12
r 0.188078 2 3 cbr 210 ------- 1 1.0 4.0 15 15
+ 0.188078 3 4 cbr 210 ------- 1 1.0 4.0 15 15
- 0.188078 3 4 cbr 210 ------- 1 1.0 4.0 15 15
r 0.18959 1 2 cbr 210 ------- 1 1.0 4.0 21 21
+ 0.18959 2 3 cbr 210 ------- 1 1.0 4.0 21 21
- 0.18959 2 3 cbr 210 ------- 1 1.0 4.0 21 21
+ 0.19 1 2 cbr 210 ------- 1 1.0 4.0 24 24
- 0.19 1 2 cbr 210 ------- 1 1.0 4.0 24 24
r 0.191418 3 4 cbr 210 ------- 1 1.0 4.0 13 13
r 0.191828 2 3 cbr 210 ------- 1 1.0 4.0 16 16
+ 0.191828 3 4 cbr 210 ------- 1 1.0 4.0 16 16
- 0.191828 3 4 cbr 210 ------- 1 1.0 4.0 16 16
r 0.19334 1 2 cbr 210 ------- 1 1.0 4.0 22 22
+ 0.19334 2 3 cbr 210 ------- 1 1.0 4.0 22 22
- 0.19334 2 3 cbr 210 ------- 1 1.0 4.0 22 22
+ 0.19375 1 2 cbr 210 ------- 1 1.0 4.0 25 25
- 0.19375 1 2 cbr 210 ------- 1 1.0 4.0 25 25
r 0.195168 3 4 cbr 210 ------- 1 1.0 4.0 14 14
r 0.195578 2 3 cbr 210 ------- 1 1.0 4.0 17 17
+ 0.195578 3 4 cbr 210 ------- 1 1.0 4.0 17 17
- 0.195578 3 4 cbr 210 ------- 1 1.0 4.0 17 17
r 0.19709 1 2 cbr 210 ------- 1 1.0 4.0 23 23
+ 0.19709 2 3 cbr 210 ------- 1 1.0 4.0 23 23
- 0.19709 2 3 cbr 210 ------- 1 1.0 4.0 23 23
+ 0.1975 1 2 cbr 210 ------- 1 1.0 4.0 26 26
- 0.1975 1 2 cbr 210 ------- 1 1.0 4.0 26 26
r 0.198918 3 4 cbr 210 ------- 1 1.0 4.0 15 15
r 0.199328 2 3 cbr 210 ------- 1 1.0 4.0 18 18
+ 0.199328 3 4 cbr 210 ------- 1 1.0 4.0 18 18
- 0.199328 3 4 cbr 210 ------- 1 1.0 4.0 18 18
r 0.20084 1 2 cbr 210 ------- 1 1.0 4.0 24 24
+ 0.20084 2 3 cbr 210 ------- 1 1.0 4.0 24 24
- 0.20084 2 3 cbr 210 ------- 1 1.0 4.0 24 24
+ 0.20125 1 2 cbr 210 ------- 1 1.0 4.0 27 27
- 0.20125 1 2 cbr 210 ------- 1 1.0 4.0 27 27
r 0.202668 3 4 cbr 210 ------- 1 1.0 4.0 16 16
r 0.203078 2 3 cbr 210 ------- 1 1.0 4.0 19 19
+ 0.203078 3 4 cbr 210 ------- 1 1.0 4.0 19 19
- 0.203078 3 4 cbr 210 ------- 1 1.0 4.0 19 19
r 0.20459 1 2 cbr 210 ------- 1 1.0 4.0 25 25
+ 0.20459 2 3 cbr 210 ------- 1 1.0 4.0 25 25
- 0.20459 2 3 cbr 210 ------- 1 1.0 4.0 25 25
+ 0.205 1 2 cbr 210 ------- 1 1.0 4.0 28 28
- 0.205 1 2 cbr 210 ------- 1 1.0 4.0 28 28
r 0.206418 3 4 cbr 210 ------- 1 1.0 4.0 17 17
r 0.206828 2 3 cbr 210 ------- 1 1.0 4.0 20 20
+ 0.206828 3 4 cbr 210 ------- 1 1.0 4.0 20 20
- 0.206828 3 4 cbr 210 ------- 1 1.0 4.0 20 20
r 0.20834 1 2 cbr 210 ------- 1 1.0 4.0 26 26
+ 0.20834 2 3 cbr 210 ------- 1 1.0 4.0 26 26
- 0.20834 2 3 cbr 210 ------- 1 1.0 4.0 26 26
+ 0.20875 1 2 cbr 210 ------- 1 1.0 4.0 29 29
- 0.20875 1 2 cbr 210 ------- 1 1.0 4.0 29 29
r 0.210168 3 4 cbr 210 ------- 1 1.0 4.0 18 18
r 0.210578 2 3 cbr 210 ------- 1 1.0 4.0 21 21
+ 0.210578 3 4 cbr 210 ------- 1 1.0 4.0 21 21
- 0.210578 3 4 cbr 210 ------- 1 1.0 4.0 21 21
r 0.21209 1 2 cbr 210 ------- 1 1.0 4.0 27 27
+ 0.21209 2 3 cbr 210 ------- 1 1.0 4.0 27 27
- 0.21209 2 3 cbr 210 ------- 1 1.0 4.0 27 27
+ 0.2125 1 2 cbr 210 ------- 1 1.0 4.0 30 30
- 0.2125 1 2 cbr 210 ------- 1 1.0 4.0 30 30
r 0.213918 3 4 cbr 210 ------- 1 1.0 4.0 19 19
r 0.214328 2 3 cbr 210 ------- 1 1.0 4.0 22 22
+ 0.214328 3 4 cbr 210 ------- 1 1.0 4.0 22 22
- 0.214328 3 4 cbr 210 ------- 1 1.0 4.0 22 22
r 0.21584 1 2 cbr 210 ------- 1 1.0 4.0 28 28
+ 0.21584 2 3 cbr 210 ------- 1 1.0 4.0 28 28
- 0.21584 2 3 cbr 210 ------- 1 1.0 4.0 28 28
+ 0.21625 1 2 cbr 210 ------- 1 1.0 4.0 31 31
- 0.21625 1 2 cbr 210 ------- 1 1.0 4.0 31 31
r 0.217668 3 4 cbr 210 ------- 1 1.0 4.0 20 20
r 0.218078 2 3 cbr 210 ------- 1 1.0 4.0 23 23
+ 0.218078 3 4 cbr 210 ------- 1 1.0 4.0 23 23
- 0.218078 3 4 cbr 210 ------- 1 1.0 4.0 23 23
r 0.21959 1 2 cbr 210 ------- 1 1.0 4.0 29 29
+ 0.21959 2 3 cbr 210 ------- 1 1.0 4.0 29 29
- 0.21959 2 3 cbr 210 ------- 1 1.0 4.0 29 29
+ 0.22 1 2 cbr 210 ------- 1 1.0 4.0 32 32
- 0.22 1 2 cbr 210 ------- 1 1.0 4.0 32 32
r 0.221418 3 4 cbr 210 ------- 1 1.0 4.0 21 21
r 0.221828 2 3 cbr 210 ------- 1 1.0 4.0 24 24
+ 0.221828 3 4 cbr 210 ------- 1 1.0 4.0 24 24
- 0.221828 3 4 cbr 210 ------- 1 1.0 4.0 24 24
r 0.22334 1 2 cbr 210 ------- 1 1.0 4.0 30 30
+ 0.22334 2 3 cbr 210 ------- 1 1.0 4.0 30 30
- 0.22334 2 3 cbr 210 ------- 1 1.0 4.0 30 30
+ 0.22375 1 2 cbr 210 ------- 1 1.0 4.0 33 33
- 0.22375 1 2 cbr 210 ------- 1 1.0 4.0 33 33
r 0.225168 3 4 cbr 210 ------- 1 1.0 4.0 22 22
r 0.225578 2 3 cbr 210 ------- 1 1.0 4.0 25 25
+ 0.225578 3 4 cbr 210 ------- 1 1.0 4.0 25 25
- 0.225578 3 4 cbr 210 ------- 1 1.0 4.0 25 25
r 0.22709 1 2 cbr 210 ------- 1 1.0 4.0 31 31
+ 0.22709 2 3 cbr 210 ------- 1 1.0 4.0 31 31
- 0.22709 2 3 cbr 210 ------- 1 1.0 4.0 31 31
+ 0.2275 1 2 cbr 210 ------- 1 1.0 4.0 34 34
- 0.2275 1 2 cbr 210 ------- 1 1.0 4.0 34 34
r 0.228918 3 4 cbr 210 ------- 1 1.0 4.0 23 23
r 0.229328 2 3 cbr 210 ------- 1 1.0 4.0 26 26
+ 0.229328 3 4 cbr 210 ------- 1 1.0 4.0 26 26
- 0.229328 3 4 cbr 210 ------- 1 1.0 4.0 26 26
r 0.23084 1 2 cbr 210 ------- 1 1.0 4.0 32 32
+ 0.23084 2 3 cbr 210 ------- 1 1.0 4.0 32 32
- 0.23084 2 3 cbr 210 ------- 1 1.0 4.0 32 32
+ 0.23125 1 2 cbr 210 ------- 1 1.0 4.0 35 35
- 0.23125 1 2 cbr 210 ------- 1 1.0 4.0 35 35
r 0.232668 3 4 cbr 210 ------- 1 1.0 4.0 24 24
r 0.233078 2 3 cbr 210 ------- 1 1.0 4.0 27 27
+ 0.233078 3 4 cbr 210 ------- 1 1.0 4.0 27 27
- 0.233078 3 4 cbr 210 ------- 1 1.0 4.0 27 27
r 0.23459 1 2 cbr 210 ------- 1 1.0 4.0 33 33
+ 0.23459 2 3 cbr 210 ------- 1 1.0 4.0 33 33
- 0.23459 2 3 cbr 210 ------- 1 1.0 4.0 33 33
+ 0.235 1 2 cbr 210 ------- 1 1.0 4.0 36 36
- 0.235 1 2 cbr 210 ------- 1 1.0 4.0 36 36
r 0.236418 3 4 cbr 210 ------- 1 1.0 4.0 25 25
r 0.236828 2 3 cbr 210 ------- 1 1.0 4.0 28 28
+ 0.236828 3 4 cbr 210 ------- 1 1.0 4.0 28 28
- 0.236828 3 4 cbr 210 ------- 1 1.0 4.0 28 28
r 0.23834 1 2 cbr 210 ------- 1 1.0 4.0 34 34
+ 0.23834 2 3 cbr 210 ------- 1 1.0 4.0 34 34
- 0.23834 2 3 cbr 210 ------- 1 1.0 4.0 34 34
+ 0.23875 1 2 cbr 210 ------- 1 1.0 4.0 37 37
- 0.23875 1 2 cbr 210 ------- 1 1.0 4.0 37 37
r 0.240168 3 4 cbr 210 ------- 1 1.0 4.0 26 26
r 0.240578 2 3 cbr 210 ------- 1 1.0 4.0 29 29
+ 0.240578 3 4 cbr 210 ------- 1 1.0 4.0 29 29
- 0.240578 3 4 cbr 210 ------- 1 1.0 4.0 29 29
r 0.24209 1 2 cbr 210 ------- 1 1.0 4.0 35 35
+ 0.24209 2 3 cbr 210 ------- 1 1.0 4.0 35 35
- 0.24209 2 3 cbr 210 ------- 1 1.0 4.0 35 35
+ 0.2425 1 2 cbr 210 ------- 1 1.0 4.0 38 38
- 0.2425 1 2 cbr 210 ------- 1 1.0 4.0 38 38
r 0.243918 3 4 cbr 210 ------- 1 1.0 4.0 27 27
r 0.244328 2 3 cbr 210 ------- 1 1.0 4.0 30 30
+ 0.244328 3 4 cbr 210 ------- 1 1.0 4.0 30 30
- 0.244328 3 4 cbr 210 ------- 1 1.0 4.0 30 30
r 0.24584 1 2 cbr 210 ------- 1 1.0 4.0 36 36
+ 0.24584 2 3 cbr 210 ------- 1 1.0 4.0 36 36
- 0.24584 2 3 cbr 210 ------- 1 1.0 4.0 36 36
+ 0.24625 1 2 cbr 210 ------- 1 1.0 4.0 39 39
- 0.24625 1 2 cbr 210 ------- 1 1.0 4.0 39 39
r 0.247668 3 4 cbr 210 ------- 1 1.0 4.0 28 28
r 0.248078 2 3 cbr 210 ------- 1 1.0 4.0 31 31
+ 0.248078 3 4 cbr 210 ------- 1 1.0 4.0 31 31
- 0.248078 3 4 cbr 210 ------- 1 1.0 4.0 31 31
r 0.24959 1 2 cbr 210 ------- 1 1.0 4.0 37 37
+ 0.24959 2 3 cbr 210 ------- 1 1.0 4.0 37 37
- 0.24959 2 3 cbr 210 ------- 1 1.0 4.0 37 37
+ 0.25 1 2 cbr 210 ------- 1 1.0 4.0 40 40
- 0.25 1 2 cbr 210 ------- 1 1.0 4.0 40 40
r 0.251418 3 4 cbr 210 ------- 1 1.0 4.0 29 29
r 0.251828 2 3 cbr 210 ------- 1 1.0 4.0 32 32
+ 0.251828 3 4 cbr 210 ------- 1 1.0 4.0 32 32
- 0.251828 3 4 cbr 210 ------- 1 1.0 4.0 32 32
r 0.25334 1 2 cbr 210 ------- 1 1.0 4.0 38 38
+ 0.25334 2 3 cbr 210 ------- 1 1.0 4.0 38 38
- 0.25334 2 3 cbr 210 ------- 1 1.0 4.0 38 38
+ 0.25375 1 2 cbr 210 ------- 1 1.0 4.0 41 41
- 0.25375 1 2 cbr 210 ------- 1 1.0 4.0 41 41
r 0.255168 3 4 cbr 210 ------- 1 1.0 4.0 30 30
r 0.255578 2 3 cbr 210 ------- 1 1.0 4.0 33 33
+ 0.255578 3 4 cbr 210 ------- 1 1.0 4.0 33 33
- 0.255578 3 4 cbr 210 ------- 1 1.0 4.0 33 33
r 0.25709 1 2 cbr 210 ------- 1 1.0 4.0 39 39
+ 0.25709 2 3 cbr 210 ------- 1 1.0 4.0 39 39
- 0.25709 2 3 cbr 210 ------- 1 1.0 4.0 39 39
+ 0.2575 1 2 cbr 210 ------- 1 1.0 4.0 42 42
- 0.2575 1 2 cbr 210 ------- 1 1.0 4.0 42 42
r 0.258918 3 4 cbr 210 ------- 1 1.0 4.0 31 31
r 0.259328 2 3 cbr 210 ------- 1 1.0 4.0 34 34
+ 0.259328 3 4 cbr 210 ------- 1 1.0 4.0 34 34
- 0.259328 3 4 cbr 210 ------- 1 1.0 4.0 34 34
r 0.26084 1 2 cbr 210 ------- 1 1.0 4.0 40 40
+ 0.26084 2 3 cbr 210 ------- 1 1.0 4.0 40 40
- 0.26084 2 3 cbr 210 ------- 1 1.0 4.0 40 40
+ 0.26125 1 2 cbr 210 ------- 1 1.0 4.0 43 43
- 0.26125 1 2 cbr 210 ------- 1 1.0 4.0 43 43
r 0.262668 3 4 cbr 210 ------- 1 1.0 4.0 32 32
r 0.263078 2 3 cbr 210 ------- 1 1.0 4.0 35 35
+ 0.263078 3 4 cbr 210 ------- 1 1.0 4.0 35 35
- 0.263078 3 4 cbr 210 ------- 1 1.0 4.0 35 35
r 0.26459 1 2 cbr 210 ------- 1 1.0 4.0 41 41
+ 0.26459 2 3 cbr 210 ------- 1 1.0 4.0 41 41
- 0.26459 2 3 cbr 210 ------- 1 1.0 4.0 41 41
+ 0.265 1 2 cbr 210 ------- 1 1.0 4.0 44 44
- 0.265 1 2 cbr 210 ------- 1 1.0 4.0 44 44
r 0.266418 3 4 cbr 210 ------- 1 1.0 4.0 33 33
r 0.266828 2 3 cbr 210 ------- 1 1.0 4.0 36 36
+ 0.266828 3 4 cbr 210 ------- 1 1.0 4.0 36 36
- 0.266828 3 4 cbr 210 ------- 1 1.0 4.0 36 36
r 0.26834 1 2 cbr 210 ------- 1 1.0 4.0 42 42
+ 0.26834 2 3 cbr 210 ------- 1 1.0 4.0 42 42
- 0.26834 2 3 cbr 210 ------- 1 1.0 4.0 42 42
+ 0.26875 1 2 cbr 210 ------- 1 1.0 4.0 45 45
- 0.26875 1 2 cbr 210 ------- 1 1.0 4.0 45 45
r 0.270168 3 4 cbr 210 ------- 1 1.0 4.0 34 34
r 0.270578 2 3 cbr 210 ------- 1 1.0 4.0 37 37
+ 0.270578 3 4 cbr 210 ------- 1 1.0 4.0 37 37
- 0.270578 3 4 cbr 210 ------- 1 1.0 4.0 37 37
r 0.27209 1 2 cbr 210 ------- 1 1.0 4.0 43 43
+ 0.27209 2 3 cbr 210 ------- 1 1.0 4.0 43 43
- 0.27209 2 3 cbr 210 ------- 1 1.0 4.0 43 43
+ 0.2725 1 2 cbr 210 ------- 1 1.0 4.0 46 46
- 0.2725 1 2 cbr 210 ------- 1 1.0 4.0 46 46
r 0.273918 3 4 cbr 210 ------- 1 1.0 4.0 35 35
r 0.274328 2 3 cbr 210 ------- 1 1.0 4.0 38 38
+ 0.274328 3 4 cbr 210 ------- 1 1.0 4.0 38 38
- 0.274328 3 4 cbr 210 ------- 1 1.0 4.0 38 38
r 0.27584 1 2 cbr 210 ------- 1 1.0 4.0 44 44
+ 0.27584 2 3 cbr 210 ------- 1 1.0 4.0 44 44
- 0.27584 2 3 cbr 210 ------- 1 1.0 4.0 44 44
+ 0.27625 1 2 cbr 210 ------- 1 1.0 4.0 47 47
- 0.27625 1 2 cbr 210 ------- 1 1.0 4.0 47 47
r 0.277668 3 4 cbr 210 ------- 1 1.0 4.0 36 36
r 0.278078 2 3 cbr 210 ------- 1 1.0 4.0 39 39
+ 0.278078 3 4 cbr 210 ------- 1 1.0 4.0 39 39
- 0.278078 3 4 cbr 210 ------- 1 1.0 4.0 39 39
r 0.27959 1 2 cbr 210 ------- 1 1.0 4.0 45 45
+ 0.27959 2 3 cbr 210 ------- 1 1.0 4.0 45 45
- 0.27959 2 3 cbr 210 ------- 1 1.0 4.0 45 45
+ 0.28 1 2 cbr 210 ------- 1 1.0 4.0 48 48
- 0.28 1 2 cbr 210 ------- 1 1.0 4.0 48 48
r 0.281418 3 4 cbr 210 ------- 1 1.0 4.0 37 37
r 0.281828 2 3 cbr 210 ------- 1 1.0 4.0 40 40
+ 0.281828 3 4 cbr 210 ------- 1 1.0 4.0 40 40
- 0.281828 3 4 cbr 210 ------- 1 1.0 4.0 40 40
r 0.28334 1 2 cbr 210 ------- 1 1.0 4.0 46 46
+ 0.28334 2 3 cbr 210 ------- 1 1.0 4.0 46 46
- 0.28334 2 3 cbr 210 ------- 1 1.0 4.0 46 46
+ 0.28375 1 2 cbr 210 ------- 1 1.0 4.0 49 49
- 0.28375 1 2 cbr 210 ------- 1 1.0 4.0 49 49
r 0.285168 3 4 cbr 210 ------- 1 1.0 4.0 38 38
r 0.285578 2 3 cbr 210 ------- 1 1.0 4.0 41 41
+ 0.285578 3 4 cbr 210 ------- 1 1.0 4.0 41 41
- 0.285578 3 4 cbr 210 ------- 1 1.0 4.0 41 41
r 0.28709 1 2 cbr 210 ------- 1 1.0 4.0 47 47
+ 0.28709 2 3 cbr 210 ------- 1 1.0 4.0 47 47
- 0.28709 2 3 cbr 210 ------- 1 1.0 4.0 47 47
+ 0.2875 1 2 cbr 210 ------- 1 1.0 4.0 50 50
- 0.2875 1 2 cbr 210 ------- 1 1.0 4.0 50 50
r 0.288918 3 4 cbr 210 ------- 1 1.0 4.0 39 39
r 0.289328 2 3 cbr 210 ------- 1 1.0 4.0 42 42
+ 0.289328 3 4 cbr 210 ------- 1 1.0 4.0 42 42
- 0.289328 3 4 cbr 210 ------- 1 1.0 4.0 42 42
r 0.29084 1 2 cbr 210 ------- 1 1.0 4.0 48 48
+ 0.29084 2 3 cbr 210 ------- 1 1.0 4.0 48 48
- 0.29084 2 3 cbr 210 ------- 1 1.0 4.0 48 48
+ 0.29125 1 2 cbr 210 ------- 1 1.0 4.0 51 51
- 0.29125 1 2 cbr 210 ------- 1 1.0 4.0 51 51
r 0.292668 3 4 cbr 210 ------- 1 1.0 4.0 40 40
r 0.293078 2 3 cbr 210 ------- 1 1.0 4.0 43 43
+ 0.293078 3 4 cbr 210 ------- 1 1.0 4.0 43 43
- 0.293078 3 4 cbr 210 ------- 1 1.0 4.0 43 43
r 0.29459 1 2 cbr 210 ------- 1 1.0 4.0 49 49
+ 0.29459 2 3 cbr 210 ------- 1 1.0 4.0 49 49
- 0.29459 2 3 cbr 210 ------- 1 1.0 4.0 49 49
+ 0.295 1 2 cbr 210 ------- 1 1.0 4.0 52 52
- 0.295 1 2 cbr 210 ------- 1 1.0 4.0 52 52
r 0.296418 3 4 cbr 210 ------- 1 1.0 4.0 41 41
r 0.296828 2 3 cbr 210 ------- 1 1.0 4.0 44 44
+ 0.296828 3 4 cbr 210 ------- 1 1.0 4.0 44 44
- 0.296828 3 4 cbr 210 ------- 1 1.0 4.0 44 44
r 0.29834 1 2 cbr 210 ------- 1 1.0 4.0 50 50
+ 0.29834 2 3 cbr 210 ------- 1 1.0 4.0 50 50
- 0.29834 2 3 cbr 210 ------- 1 1.0 4.0 50 50
+ 0.29875 1 2 cbr 210 ------- 1 1.0 4.0 53 53
- 0.29875 1 2 cbr 210 ------- 1 1.0 4.0 53 53
r 0.300168 3 4 cbr 210 ------- 1 1.0 4.0 42 42
r 0.300578 2 3 cbr 210 ------- 1 1.0 4.0 45 45
+ 0.300578 3 4 cbr 210 ------- 1 1.0 4.0 45 45
- 0.300578 3 4 cbr 210 ------- 1 1.0 4.0 45 45
r 0.30209 1 2 cbr 210 ------- 1 1.0 4.0 51 51
+ 0.30209 2 3 cbr 210 ------- 1 1.0 4.0 51 51
- 0.30209 2 3 cbr 210 ------- 1 1.0 4.0 51 51
+ 0.3025 1 2 cbr 210 ------- 1 1.0 4.0 54 54
- 0.3025 1 2 cbr 210 ------- 1 1.0 4.0 54 54
r 0.303918 3 4 cbr 210 ------- 1 1.0 4.0 43 43
r 0.304328 2 3 cbr 210 ------- 1 1.0 4.0 46 46
+ 0.304328 3 4 cbr 210 ------- 1 1.0 4.0 46 46
- 0.304328 3 4 cbr 210 ------- 1 1.0 4.0 46 46
r 0.30584 1 2 cbr 210 ------- 1 1.0 4.0 52 52
+ 0.30584 2 3 cbr 210 ------- 1 1.0 4.0 52 52
- 0.30584 2 3 cbr 210 ------- 1 1.0 4.0 52 52
+ 0.30625 1 2 cbr 210 ------- 1 1.0 4.0 55 55
- 0.30625 1 2 cbr 210 ------- 1 1.0 4.0 55 55
r 0.307668 3 4 cbr 210 ------- 1 1.0 4.0 44 44
r 0.308078 2 3 cbr 210 ------- 1 1.0 4.0 47 47
+ 0.308078 3 4 cbr 210 ------- 1 1.0 4.0 47 47
- 0.308078 3 4 cbr 210 ------- 1 1.0 4.0 47 47
r 0.30959 1 2 cbr 210 ------- 1 1.0 4.0 53 53
+ 0.30959 2 3 cbr 210 ------- 1 1.0 4.0 53 53
- 0.30959 2 3 cbr 210 ------- 1 1.0 4.0 53 53
+ 0.31 1 2 cbr 210 ------- 1 1.0 4.0 56 56
- 0.31 1 2 cbr 210 ------- 1 1.0 4.0 56 56
r 0.311418 3 4 cbr 210 ------- 1 1.0 4.0 45 45
r 0.311828 2 3 cbr 210 ------- 1 1.0 4.0 48 48
+ 0.311828 3 4 cbr 210 ------- 1 1.0 4.0 48 48
- 0.311828 3 4 cbr 210 ------- 1 1.0 4.0 48 48
r 0.31334 1 2 cbr 210 ------- 1 1.0 4.0 54 54
+ 0.31334 2 3 cbr 210 ------- 1 1.0 4.0 54 54
- 0.31334 2 3 cbr 210 ------- 1 1.0 4.0 54 54
+ 0.31375 1 2 cbr 210 ------- 1 1.0 4.0 57 57
- 0.31375 1 2 cbr 210 ------- 1 1.0 4.0 57 57
r 0.315168 3 4 cbr 210 ------- 1 1.0 4.0 46 46
r 0.315578 2 3 cbr 210 ------- 1 1.0 4.0 49 49
+ 0.315578 3 4 cbr 210 ------- 1 1.0 4.0 49 49
- 0.315578 3 4 cbr 210 ------- 1 1.0 4.0 49 49
r 0.31709 1 2 cbr 210 ------- 1 1.0 4.0 55 55
+ 0.31709 2 3 cbr 210 ------- 1 1.0 4.0 55 55
- 0.31709 2 3 cbr 210 ------- 1 1.0 4.0 55 55
+ 0.3175 1 2 cbr 210 ------- 1 1.0 4.0 58 58
- 0.3175 1 2 cbr 210 ------- 1 1.0 4.0 58 58
r 0.318918 3 4 cbr 210 ------- 1 1.0 4.0 47 47
r 0.319328 2 3 cbr 210 ------- 1 1.0 4.0 50 50
+ 0.319328 3 4 cbr 210 ------- 1 1.0 4.0 50 50
- 0.319328 3 4 cbr 210 ------- 1 1.0 4.0 50 50
r 0.32084 1 2 cbr 210 ------- 1 1.0 4.0 56 56
+ 0.32084 2 3 cbr 210 ------- 1 1.0 4.0 56 56
- 0.32084 2 3 cbr 210 ------- 1 1.0 4.0 56 56
+ 0.32125 1 2 cbr 210 ------- 1 1.0 4.0 59 59
- 0.32125 1 2 cbr 210 ------- 1 1.0 4.0 59 59
r 0.322668 3 4 cbr 210 ------- 1 1.0 4.0 48 48
r 0.323078 2 3 cbr 210 ------- 1 1.0 4.0 51 51
+ 0.323078 3 4 cbr 210 ------- 1 1.0 4.0 51 51
- 0.323078 3 4 cbr 210 ------- 1 1.0 4.0 51 51
r 0.32459 1 2 cbr 210 ------- 1 1.0 4.0 57 57
+ 0.32459 2 3 cbr 210 ------- 1 1.0 4.0 57 57
- 0.32459 2 3 cbr 210 ------- 1 1.0 4.0 57 57
+ 0.325 1 2 cbr 210 ------- 1 1.0 4.0 60 60
- 0.325 1 2 cbr 210 ------- 1 1.0 4.0 60 60
r 0.326418 3 4 cbr 210 ------- 1 1.0 4.0 49 49
r 0.326828 2 3 cbr 210 ------- 1 1.0 4.0 52 52
+ 0.326828 3 4 cbr 210 ------- 1 1.0 4.0 52 52
- 0.326828 3 4 cbr 210 ------- 1 1.0 4.0 52 52
r 0.32834 1 2 cbr 210 ------- 1 1.0 4.0 58 58
+ 0.32834 2 3 cbr 210 ------- 1 1.0 4.0 58 58
- 0.32834 2 3 cbr 210 ------- 1 1.0 4.0 58 58
+ 0.32875 1 2 cbr 210 ------- 1 1.0 4.0 61 61
- 0.32875 1 2 cbr 210 ------- 1 1.0 4.0 61 61
r 0.330168 3 4 cbr 210 ------- 1 1.0 4.0 50 50
r 0.330578 2 3 cbr 210 ------- 1 1.0 4.0 53 53
+ 0.330578 3 4 cbr 210 ------- 1 1.0 4.0 53 53
- 0.330578 3 4 cbr 210 ------- 1 1.0 4.0 53 53
r 0.33209 1 2 cbr 210 ------- 1 1.0 4.0 59 59
+ 0.33209 2 3 cbr 210 ------- 1 1.0 4.0 59 59
- 0.33209 2 3 cbr 210 ------- 1 1.0 4.0 59 59
+ 0.3325 1 2 cbr 210 ------- 1 1.0 4.0 62 62
- 0.3325 1 2 cbr 210 ------- 1 1.0 4.0 62 62
r 0.333918 3 4 cbr 210 ------- 1 1.0 4.0 51 51
r 0.334328 2 3 cbr 210 ------- 1 1.0 4.0 54 54
+ 0.334328 3 4 cbr 210 ------- 1 1.0 4.0 54 54
- 0.334328 3 4 cbr 210 ------- 1 1.0 4.0 54 54
r 0.33584 1 2 cbr 210 ------- 1 1.0 4.0 60 60
+ 0.33584 2 3 cbr 210 ------- 1 1.0 4.0 60 60
- 0.33584 2 3 cbr 210 ------- 1 1.0 4.0 60 60
+ 0.33625 1 2 cbr 210 ------- 1 1.0 4.0 63 63
- 0.33625 1 2 cbr 210 ------- 1 1.0 4.0 63 63
r 0.337668 3 4 cbr 210 ------- 1 1.0 4.0 52 52
r 0.338078 2 3 cbr 210 ------- 1 1.0 4.0 55 55
+ 0.338078 3 4 cbr 210 ------- 1 1.0 4.0 55 55
- 0.338078 3 4 cbr 210 ------- 1 1.0 4.0 55 55
r 0.33959 1 2 cbr 210 ------- 1 1.0 4.0 61 61
+ 0.33959 2 3 cbr 210 ------- 1 1.0 4.0 61 61
- 0.33959 2 3 cbr 210 ------- 1 1.0 4.0 61 61
+ 0.34 1 2 cbr 210 ------- 1 1.0 4.0 64 64
- 0.34 1 2 cbr 210 ------- 1 1.0 4.0 64 64
r 0.341418 3 4 cbr 210 ------- 1 1.0 4.0 53 53
r 0.341828 2 3 cbr 210 ------- 1 1.0 4.0 56 56
+ 0.341828 3 4 cbr 210 ------- 1 1.0 4.0 56 56
- 0.341828 3 4 cbr 210 ------- 1 1.0 4.0 56 56
r 0.34334 1 2 cbr 210 ------- 1 1.0 4.0 62 62
+ 0.34334 2 3 cbr 210 ------- 1 1.0 4.0 62 62
- 0.34334 2 3 cbr 210 ------- 1 1.0 4.0 62 62
+ 0.34375 1 2 cbr 210 ------- 1 1.0 4.0 65 65
- 0.34375 1 2 cbr 210 ------- 1 1.0 4.0 65 65
r 0.345168 3 4 cbr 210 ------- 1 1.0 4.0 54 54
r 0.345578 2 3 cbr 210 ------- 1 1.0 4.0 57 57
+ 0.345578 3 4 cbr 210 ------- 1 1.0 4.0 57 57
- 0.345578 3 4 cbr 210 ------- 1 1.0 4.0 57 57
r 0.34709 1 2 cbr 210 ------- 1 1.0 4.0 63 63
+ 0.34709 2 3 cbr 210 ------- 1 1.0 4.0 63 63
- 0.34709 2 3 cbr 210 ------- 1 1.0 4.0 63 63
+ 0.3475 1 2 cbr 210 ------- 1 1.0 4.0 66 66
- 0.3475 1 2 cbr 210 ------- 1 1.0 4.0 66 66
r 0.348918 3 4 cbr 210 ------- 1 1.0 4.0 55 55
r 0.349328 2 3 cbr 210 ------- 1 1.0 4.0 58 58
+ 0.349328 3 4 cbr 210 ------- 1 1.0 4.0 58 58
- 0.349328 3 4 cbr 210 ------- 1 1.0 4.0 58 58
r 0.35084 1 2 cbr 210 ------- 1 1.0 4.0 64 64
+ 0.35084 2 3 cbr 210 ------- 1 1.0 4.0 64 64
- 0.35084 2 3 cbr 210 ------- 1 1.0 4.0 64 64
+ 0.35125 1 2 cbr 210 ------- 1 1.0 4.0 67 67
- 0.35125 1 2 cbr 210 ------- 1 1.0 4.0 67 67
r 0.352668 3 4 cbr 210 ------- 1 1.0 4.0 56 56
r 0.353078 2 3 cbr 210 ------- 1 1.0 4.0 59 59
+ 0.353078 3 4 cbr 210 ------- 1 1.0 4.0 59 59
- 0.353078 3 4 cbr 210 ------- 1 1.0 4.0 59 59
r 0.35459 1 2 cbr 210 ------- 1 1.0 4.0 65 65
+ 0.35459 2 3 cbr 210 ------- 1 1.0 4.0 65 65
- 0.35459 2 3 cbr 210 ------- 1 1.0 4.0 65 65
+ 0.355 1 2 cbr 210 ------- 1 1.0 4.0 68 68
- 0.355 1 2 cbr 210 ------- 1 1.0 4.0 68 68
r 0.356418 3 4 cbr 210 ------- 1 1.0 4.0 57 57
r 0.356828 2 3 cbr 210 ------- 1 1.0 4.0 60 60
+ 0.356828 3 4 cbr 210 ------- 1 1.0 4.0 60 60
- 0.356828 3 4 cbr 210 ------- 1 1.0 4.0 60 60
r 0.35834 1 2 cbr 210 ------- 1 1.0 4.0 66 66
+ 0.35834 2 3 cbr 210 ------- 1 1.0 4.0 66 66
- 0.35834 2 3 cbr 210 ------- 1 1.0 4.0 66 66
+ 0.35875 1 2 cbr 210 ------- 1 1.0 4.0 69 69
- 0.35875 1 2 cbr 210 ------- 1 1.0 4.0 69 69
r 0.360168 3 4 cbr 210 ------- 1 1.0 4.0 58 58
r 0.360578 2 3 cbr 210 ------- 1 1.0 4.0 61 61
+ 0.360578 3 4 cbr 210 ------- 1 1.0 4.0 61 61
- 0.360578 3 4 cbr 210 ------- 1 1.0 4.0 61 61
r 0.36209 1 2 cbr 210 ------- 1 1.0 4.0 67 67
+ 0.36209 2 3 cbr 210 ------- 1 1.0 4.0 67 67
- 0.36209 2 3 cbr 210 ------- 1 1.0 4.0 67 67
+ 0.3625 1 2 cbr 210 ------- 1 1.0 4.0 70 70
- 0.3625 1 2 cbr 210 ------- 1 1.0 4.0 70 70
r 0.363918 3 4 cbr 210 ------- 1 1.0 4.0 59 59
r 0.364328 2 3 cbr 210 ------- 1 1.0 4.0 62 62
+ 0.364328 3 4 cbr 210 ------- 1 1.0 4.0 62 62
- 0.364328 3 4 cbr 210 ------- 1 1.0 4.0 62 62
r 0.36584 1 2 cbr 210 ------- 1 1.0 4.0 68 68
+ 0.36584 2 3 cbr 210 ------- 1 1.0 4.0 68 68
- 0.36584 2 3 cbr 210 ------- 1 1.0 4.0 68 68
+ 0.36625 1 2 cbr 210 ------- 1 1.0 4.0 71 71
- 0.36625 1 2 cbr 210 ------- 1 1.0 4.0 71 71
r 0.367668 3 4 cbr 210 ------- 1 1.0 4.0 60 60
r 0.368078 2 3 cbr 210 ------- 1 1.0 4.0 63 63
+ 0.368078 3 4 cbr 210 ------- 1 1.0 4.0 63 63
- 0.368078 3 4 cbr 210 ------- 1 1.0 4.0 63 63
r 0.36959 1 2 cbr 210 ------- 1 1.0 4.0 69 69
+ 0.36959 2 3 cbr 210 ------- 1 1.0 4.0 69 69
- 0.36959 2 3 cbr 210 ------- 1 1.0 4.0 69 69
+ 0.37 1 2 cbr 210 ------- 1 1.0 4.0 72 72
- 0.37 1 2 cbr 210 ------- 1 1.0 4.0 72 72
r 0.371418 3 4 cbr 210 ------- 1 1.0 4.0 61 61
r 0.371828 2 3 cbr 210 ------- 1 1.0 4.0 64 64
+ 0.371828 3 4 cbr 210 ------- 1 1.0 4.0 64 64
- 0.371828 3 4 cbr 210 ------- 1 1.0 4.0 64 64
r 0.37334 1 2 cbr 210 ------- 1 1.0 4.0 70 70
+ 0.37334 2 3 cbr 210 ------- 1 1.0 4.0 70 70
- 0.37334 2 3 cbr 210 ------- 1 1.0 4.0 70 70
+ 0.37375 1 2 cbr 210 ------- 1 1.0 4.0 73 73
- 0.37375 1 2 cbr 210 ------- 1 1.0 4.0 73 73
r 0.375168 3 4 cbr 210 ------- 1 1.0 4.0 62 62
r 0.375578 2 3 cbr 210 ------- 1 1.0 4.0 65 65
+ 0.375578 3 4 cbr 210 ------- 1 1.0 4.0 65 65
- 0.375578 3 4 cbr 210 ------- 1 1.0 4.0 65 65
r 0.37709 1 2 cbr 210 ------- 1 1.0 4.0 71 71
+ 0.37709 2 3 cbr 210 ------- 1 1.0 4.0 71 71
- 0.37709 2 3 cbr 210 ------- 1 1.0 4.0 71 71
+ 0.3775 1 2 cbr 210 ------- 1 1.0 4.0 74 74
- 0.3775 1 2 cbr 210 ------- 1 1.0 4.0 74 74
r 0.378918 3 4 cbr 210 ------- 1 1.0 4.0 63 63
r 0.379328 2 3 cbr 210 ------- 1 1.0 4.0 66 66
+ 0.379328 3 4 cbr 210 ------- 1 1.0 4.0 66 66
- 0.379328 3 4 cbr 210 ------- 1 1.0 4.0 66 66
r 0.38084 1 2 cbr 210 ------- 1 1.0 4.0 72 72
+ 0.38084 2 3 cbr 210 ------- 1 1.0 4.0 72 72
- 0.38084 2 3 cbr 210 ------- 1 1.0 4.0 72 72
+ 0.38125 1 2 cbr 210 ------- 1 1.0 4.0 75 75
- 0.38125 1 2 cbr 210 ------- 1 1.0 4.0 75 75
r 0.382668 3 4 cbr 210 ------- 1 1.0 4.0 64 64
r 0.383078 2 3 cbr 210 ------- 1 1.0 4.0 67 67
+ 0.383078 3 4 cbr 210 ------- 1 1.0 4.0 67 67
- 0.383078 3 4 cbr 210 ------- 1 1.0 4.0 67 67
r 0.38459 1 2 cbr 210 ------- 1 1.0 4.0 73 73
+ 0.38459 2 3 cbr 210 ------- 1 1.0 4.0 73 73
- 0.38459 2 3 cbr 210 ------- 1 1.0 4.0 73 73
+ 0.385 1 2 cbr 210 ------- 1 1.0 4.0 76 76
- 0.385 1 2 cbr 210 ------- 1 1.0 4.0 76 76
r 0.386418 3 4 cbr 210 ------- 1 1.0 4.0 65 65
r 0.386828 2 3 cbr 210 ------- 1 1.0 4.0 68 68
+ 0.386828 3 4 cbr 210 ------- 1 1.0 4.0 68 68
- 0.386828 3 4 cbr 210 ------- 1 1.0 4.0 68 68
r 0.38834 1 2 cbr 210 ------- 1 1.0 4.0 74 74
+ 0.38834 2 3 cbr 210 ------- 1 1.0 4.0 74 74
- 0.38834 2 3 cbr 210 ------- 1 1.0 4.0 74 74
+ 0.38875 1 2 cbr 210 ------- 1 1.0 4.0 77 77